<?xml version="1.0" encoding="UTF-8" ?>
<psml version="1.1" energy_unit="hartree" length_unit="bohr"
 uuid="ce0e5e10-be62-11e7-7dc9-143af3be9174"
 xmlns="http://esl.cecam.org/PSML/ns/1.1">
<provenance creator="ONCVPSP-3.3.0+psml-3.3.0-73 (scalar-relativistic)"
 date="2017-10-31">
<annotation action="semilocal-pseudopotential-generation"
 action-cont="projectors-generation" />
<input-file name="oncvpsp-input">
<![CDATA[# atsym z nc nv iexc psfile
Ar 18 3 2 4 upf
# n l f
1 0 2.0
2 0 2.0
2 1 6.0
3 0 2.0
3 1 6.0
# lmax
2
# l rc ep ncon nbas qcut
0 1.55 0.0 4 8 8.2
1 1.55 0.0 4 8 8.2
2 1.55 0.1 4 8 8.2
# lloc lpopt rc5 dvloc0
4 5 1.5 0.0
# l nproj debl
0 2 1.5
1 2 1.5
2 2 1.0
# icmod fcfact
3 7 1.25
# epsh1 epsh2 depsh
-12.0 12.0 0.02
# rlmax drl
4.0 0.01
 0
]]>
</input-file>
</provenance>
<pseudo-atom-spec atomic-label="Ar" atomic-number="18" z-pseudo="8"
 flavor="Hamann&apos;s oncvpsp" relativity="scalar" spin-dft="no"
 core-corrections="yes">
<annotation pseudo-energy="-21.1591761638" />
<exchange-correlation>
<annotation oncvpsp-xc-code="4" oncvpsp-xc-type="GGA -- Perdew-Burke-Ernzerhof" />
<libxc-info number-of-functionals="2">
<functional name="Perdew, Burke &amp; Ernzerhof (GGA)" type="exchange" id="101" />
<functional name="Perdew, Burke &amp; Ernzerhof (GGA)" type="correlation"
 id="130" />
</libxc-info>
</exchange-correlation>
<valence-configuration total-valence-charge="8">
<shell n="3" l="s" occupation="2" />
<shell n="3" l="p" occupation="6" />
</valence-configuration>
</pseudo-atom-spec>
<grid npts="457">
<annotation type="sampled from oncvpsp log grid"
 recipe="r(i:1..N) = r1*exp(a*(i-1)) + r=0; resampled"
 recipe-cont="r1: scale; a: step" scale="0.277777777778E-04"
 step="0.119285708653E-01" delta="0.500000000000E-02" rmax="44.1337637881" />
<grid-data>
  0.000000000000E+00  5.039656670363E-03  1.006631870100E-02  1.510108323112E-02
  2.010668162892E-02  2.522145511185E-02  3.052518740768E-02  3.564552384771E-02
  4.113117834404E-02  4.634216045545E-02  5.159420074619E-02  5.676034011613E-02
  6.244376622769E-02  6.788169478566E-02  7.291816847781E-02  7.832832269358E-02
  8.413988261178E-02  8.931089968118E-02  9.479971393192E-02  1.006258563474E-01
  1.068100582341E-01  1.120299654056E-01  1.175049743093E-01  1.232475520049E-01
  1.292707748288E-01  1.355883581702E-01  1.422146877022E-01  1.473960989515E-01
  1.527662883290E-01  1.583321337255E-01  1.641007636193E-01  1.700795662056E-01
  1.762761988591E-01  1.826985979412E-01  1.893549889646E-01  1.962538971280E-01
  2.034041582349E-01  2.108149300101E-01  2.159048456802E-01  2.211176522743E-01
  2.264563168709E-01  2.319238781854E-01  2.375234483003E-01  2.432582144361E-01
  2.491314407654E-01  2.551464702712E-01  2.613067266495E-01  2.676157162577E-01
  2.740770301110E-01  2.806943459260E-01  2.874714302141E-01  2.944121404252E-01
  3.015204271436E-01  3.088003363365E-01  3.162560116570E-01  3.238916968025E-01
  3.317117379301E-01  3.397205861307E-01  3.479227999622E-01  3.563230480445E-01
  3.649261117165E-01  3.737368877578E-01  3.827603911758E-01  3.920017580603E-01
  4.014662485069E-01  4.111592496109E-01  4.210862785335E-01  4.261393138759E-01
  4.312529856424E-01  4.364280214701E-01  4.416651577278E-01  4.469651396205E-01
  4.523287212960E-01  4.577566659515E-01  4.632497459429E-01  4.688087428942E-01
  4.744344478090E-01  4.801276611827E-01  4.858891931169E-01  4.917198634343E-01
  4.976205017955E-01  5.035919478170E-01  5.096350511908E-01  5.157506718051E-01
  5.219396798668E-01  5.282029560252E-01  5.345413914975E-01  5.409558881955E-01
  5.474473588538E-01  5.540167271600E-01  5.606649278860E-01  5.673929070206E-01
  5.742016219048E-01  5.810920413677E-01  5.880651458641E-01  5.951219276145E-01
  6.022633907459E-01  6.094905514348E-01  6.168044380520E-01  6.242060913086E-01
  6.316965644044E-01  6.392769231772E-01  6.469482462553E-01  6.547116252104E-01
  6.625681647129E-01  6.705189826895E-01  6.785652104817E-01  6.867079930075E-01
  6.949484889236E-01  7.032878707907E-01  7.117273252402E-01  7.202680531431E-01
  7.289112697808E-01  7.376582050182E-01  7.465101034784E-01  7.554682247201E-01
  7.645338434168E-01  7.737082495378E-01  7.829927485322E-01  7.923886615146E-01
  8.018973254528E-01  8.115200933582E-01  8.212583344785E-01  8.311134344923E-01
  8.410867957062E-01  8.511798372546E-01  8.613939953017E-01  8.717307232453E-01
  8.821914919243E-01  8.927777898273E-01  9.034911233053E-01  9.143330167849E-01
  9.253050129864E-01  9.364086731422E-01  9.476455772199E-01  9.590173241465E-01
  9.705255320363E-01  9.821718384207E-01  9.939579004818E-01  1.005885395288E+00
  1.017956020031E+00  1.030171492271E+00  1.042533550179E+00  1.055043952781E+00
  1.067704480214E+00  1.080516933977E+00  1.093483137184E+00  1.106604934831E+00
  1.119884194049E+00  1.133322804377E+00  1.146922678030E+00  1.160685750166E+00
  1.174613979168E+00  1.188709346918E+00  1.202973859081E+00  1.217409545390E+00
  1.232018459935E+00  1.246802681454E+00  1.261764313631E+00  1.276905485395E+00
  1.292228351220E+00  1.307735091434E+00  1.323427912532E+00  1.339309047482E+00
  1.355380756052E+00  1.371645325124E+00  1.388105069026E+00  1.404762329854E+00
  1.421619477812E+00  1.438678911546E+00  1.455943058485E+00  1.473414375187E+00
  1.491095347689E+00  1.508988491861E+00  1.527096353763E+00  1.545421510009E+00
  1.563966568129E+00  1.582734166946E+00  1.601726976950E+00  1.620947700673E+00
  1.640399073081E+00  1.660083861958E+00  1.680004868302E+00  1.700164926721E+00
  1.720566905842E+00  1.741213708712E+00  1.762108273216E+00  1.783253572495E+00
  1.804652615365E+00  1.826308446749E+00  1.848224148110E+00  1.870402837888E+00
  1.892847671942E+00  1.915561844006E+00  1.938548586134E+00  1.961811169167E+00
  1.985352903197E+00  2.009177138036E+00  2.033287263692E+00  2.057686710856E+00
  2.082378951387E+00  2.107367498803E+00  2.132655908789E+00  2.158247779694E+00
  2.184146753051E+00  2.210356514087E+00  2.236880792256E+00  2.263723361763E+00
  2.290888042105E+00  2.318378698610E+00  2.346199242993E+00  2.374353633909E+00
  2.402845877516E+00  2.431680028046E+00  2.460860188383E+00  2.490390510643E+00
  2.520275196771E+00  2.550518499132E+00  2.581124721122E+00  2.612098217775E+00
  2.643443396389E+00  2.675164717145E+00  2.707266693751E+00  2.739753894076E+00
  2.772630940805E+00  2.805902512095E+00  2.839573342240E+00  2.873648222347E+00
  2.908132001015E+00  2.943029585027E+00  2.978345940047E+00  3.014086091328E+00
  3.050255124424E+00  3.086858185917E+00  3.123900484148E+00  3.161387289958E+00
  3.199323937437E+00  3.237715824687E+00  3.276568414583E+00  3.315887235558E+00
  3.355677882384E+00  3.395946016973E+00  3.436697369177E+00  3.477937737607E+00
  3.519672990458E+00  3.561909066344E+00  3.604651975140E+00  3.647907798841E+00
  3.691682692428E+00  3.735982884737E+00  3.780814679353E+00  3.826184455506E+00
  3.872098668972E+00  3.918563852999E+00  3.965586619235E+00  4.013173658666E+00
  4.061331742570E+00  4.110067723481E+00  4.159388536163E+00  4.209301198597E+00
  4.259812812980E+00  4.310930566736E+00  4.362661733537E+00  4.415013674339E+00
  4.467993838431E+00  4.521609764492E+00  4.575869081666E+00  4.630779510646E+00
  4.686348864774E+00  4.742585051151E+00  4.799496071765E+00  4.857090024626E+00
  4.915375104922E+00  4.974359606181E+00  5.034051921455E+00  5.094460544512E+00
  5.155594071047E+00  5.217461199899E+00  5.280070734298E+00  5.343431583109E+00
  5.407552762107E+00  5.472443395252E+00  5.538112715995E+00  5.604570068587E+00
  5.671824909410E+00  5.739886808323E+00  5.808765450023E+00  5.878470635423E+00
  5.949012283048E+00  6.020400430445E+00  6.092645235610E+00  6.165756978437E+00
  6.239746062179E+00  6.314623014925E+00  6.390398491104E+00  6.467083272997E+00
  6.544688272273E+00  6.623224531540E+00  6.702703225919E+00  6.783135664630E+00
  6.864533292606E+00  6.946907692117E+00  7.030270584422E+00  7.114633831435E+00
  7.200009437412E+00  7.286409550661E+00  7.373846465269E+00  7.462332622853E+00
  7.551880614327E+00  7.642503181699E+00  7.734213219879E+00  7.827023778518E+00
  7.920948063860E+00  8.015999440626E+00  8.112191433914E+00  8.209537731121E+00
  8.308052183894E+00  8.407748810101E+00  8.508641795822E+00  8.610745497372E+00
  8.714074443340E+00  8.818643336661E+00  8.924467056700E+00  9.031560661381E+00
  9.139939389317E+00  9.249618661989E+00  9.360614085933E+00  9.472941454964E+00
  9.586616752424E+00  9.701656153453E+00  9.818076027294E+00  9.935892939622E+00
  1.005512365490E+01  1.017578513876E+01  1.029789456042E+01  1.042146929515E+01
  1.054652692669E+01  1.067308524981E+01  1.080116227281E+01  1.093077622008E+01
  1.106194553472E+01  1.119468888114E+01  1.132902514771E+01  1.146497344948E+01
  1.160255313088E+01  1.174178376845E+01  1.188268517367E+01  1.202527739575E+01
  1.216958072450E+01  1.231561569320E+01  1.246340308151E+01  1.261296391849E+01
  1.276431948551E+01  1.291749131934E+01  1.307250121517E+01  1.322937122976E+01
  1.338812368451E+01  1.354878116873E+01  1.371136654275E+01  1.387590294126E+01
  1.404241377656E+01  1.421092274188E+01  1.438145381478E+01  1.455403126056E+01
  1.472867963568E+01  1.490542379131E+01  1.508428887681E+01  1.526530034333E+01
  1.544848394745E+01  1.563386575482E+01  1.582147214388E+01  1.601132980960E+01
  1.620346576732E+01  1.639790735653E+01  1.659468224481E+01  1.679381843174E+01
  1.699534425292E+01  1.719928838396E+01  1.740567984457E+01  1.761454800270E+01
  1.782592257873E+01  1.803983364968E+01  1.825631165347E+01  1.847538739332E+01
  1.869709204204E+01  1.892145714654E+01  1.914851463230E+01  1.937829680789E+01
  1.961083636958E+01  1.984616640602E+01  2.008432040289E+01  2.032533224772E+01
  2.056923623470E+01  2.081606706951E+01  2.106585987435E+01  2.131865019284E+01
  2.157447399515E+01  2.183336768309E+01  2.209536809529E+01  2.236051251243E+01
  2.262883866258E+01  2.290038472654E+01  2.317518934325E+01  2.345329161537E+01
  2.373473111476E+01  2.401954788813E+01  2.430778246279E+01  2.459947585235E+01
  2.489466956257E+01  2.519340559732E+01  2.549572646449E+01  2.580167518207E+01
  2.611129528425E+01  2.642463082766E+01  2.674172639759E+01  2.706262711436E+01
  2.738737863974E+01  2.771602718341E+01  2.804861950962E+01  2.838520294373E+01
  2.872582537906E+01  2.907053528360E+01  2.941938170701E+01  2.977241428749E+01
  3.012968325894E+01  3.049123945805E+01  3.085713433155E+01  3.122741994352E+01
  3.160214898285E+01  3.198137477064E+01  3.236515126789E+01  3.275353308310E+01
  3.314657548010E+01  3.354433438586E+01  3.394686639849E+01  3.435422879527E+01
  3.476647954082E+01  3.518367729531E+01  3.560588142285E+01  3.603315199992E+01
  3.646554982392E+01  3.690313642181E+01  3.734597405887E+01  3.779412574758E+01
  3.824765525655E+01  3.870662711963E+01  3.917110664506E+01  3.964115992480E+01
  4.011685384390E+01  4.059825609003E+01  4.108543516311E+01  4.157846038507E+01
  4.207740190969E+01  4.258233073260E+01  4.309331870139E+01  4.361043852581E+01
  4.413376378812E+01
</grid-data>
</grid>
<valence-charge total-charge="8" is-unscreening-charge="yes"
 rescaled-to-z-pseudo="no">
<radfunc>
<data npts="457">
  4.170715420174E-02  4.198082329478E-02  4.279905963617E-02  4.416465120640E-02
  4.606431492778E-02  4.856398421501E-02  5.175276716538E-02  5.540831085315E-02
  5.995441542113E-02  6.487706107087E-02  7.043505715545E-02  7.648742765637E-02
  8.381763622502E-02  9.149146274801E-02  9.917594778183E-02  1.080503227974E-01
  1.182999530486E-01  1.280456580390E-01  1.390366783255E-01  1.514333444780E-01
  1.654168625797E-01  1.778829822490E-01  1.916122878568E-01  2.067338649649E-01
  2.233900978717E-01  2.417380246340E-01  2.619508155791E-01  2.784483545994E-01
  2.961895115741E-01  3.152685292519E-01  3.357867096751E-01  3.578528956914E-01
  3.815839704122E-01  4.071053709225E-01  4.345516110815E-01  4.640668064272E-01
  4.958051919516E-01  5.299316207672E-01  5.540956768301E-01  5.794539943190E-01
  6.060638430031E-01  6.339848481932E-01  6.632790181154E-01  6.940107587140E-01
  7.262468733772E-01  7.600565447492E-01  7.955112954187E-01  8.326849238810E-01
  8.716534117280E-01  9.124947975602E-01  9.552890126088E-01  1.000117672532E+00
  1.047063819285E+00  1.096211606406E+00  1.147645920431E+00  1.201451930623E+00
  1.257714558542E+00  1.316517858496E+00  1.377944299374E+00  1.442073937927E+00
  1.508983473254E+00  1.578745172071E+00  1.651425654305E+00  1.727084528844E+00
  1.805772869769E+00  1.887531524308E+00  1.972389245048E+00  2.015985432807E+00
  2.060360640833E+00  2.105514118816E+00  2.151443943142E+00  2.198146937038E+00
  2.245618587938E+00  2.293852962136E+00  2.342842616846E+00  2.392578509768E+00
  2.443049906331E+00  2.494244284775E+00  2.546147239295E+00  2.598742381476E+00
  2.652011240311E+00  2.705933161103E+00  2.760485203619E+00  2.815642039879E+00
  2.871375852033E+00  2.927656230813E+00  2.984450075076E+00  3.041721493053E+00
  3.099431705912E+00  3.157538954336E+00  3.215998408854E+00  3.274762084721E+00
  3.333778762190E+00  3.392993913079E+00  3.452349634588E+00  3.511784591367E+00
  3.571233966885E+00  3.630629425200E+00  3.689899084264E+00  3.748967501943E+00
  3.807755675947E+00  3.866181058907E+00  3.924157589841E+00  3.981595743253E+00
  4.038402597123E+00  4.094481921019E+00  4.149734285523E+00  4.204057194154E+00
  4.257345238883E+00  4.309490280279E+00  4.360381653231E+00  4.409906399077E+00
  4.457949524855E+00  4.504394290240E+00  4.549122522541E+00  4.592014959983E+00
  4.632951623249E+00  4.671812215052E+00  4.708476547240E+00  4.742824994667E+00
  4.774738974789E+00  4.804101451600E+00  4.830797462248E+00  4.854714664301E+00
  4.875743901304E+00  4.893779783910E+00  4.908721283544E+00  4.920472335168E+00
  4.928942445413E+00  4.934047301989E+00  4.935709380004E+00  4.933858540498E+00
  4.928432616284E+00  4.919377979931E+00  4.906650088580E+00  4.890214000137E+00
  4.870044855299E+00  4.846128319892E+00  4.818460981999E+00  4.787050698496E+00
  4.751916885807E+00  4.713090749909E+00  4.670615450974E+00  4.624546198441E+00
  4.574950272753E+00  4.521906970569E+00  4.465507470846E+00  4.405854619866E+00
  4.343062633982E+00  4.277256719651E+00  4.208572611097E+00  4.137156026792E+00
  4.063162046789E+00  3.986754413788E+00  3.908104761690E+00  3.827391776208E+00
  3.744800292944E+00  3.660520339113E+00  3.574746125845E+00  3.487674998665E+00
  3.399506354427E+00  3.310440533480E+00  3.220677696392E+00  3.130416694922E+00
  3.039853947302E+00  2.949182328056E+00  2.858590082810E+00  2.768259778503E+00
  2.678367299387E+00  2.589080899046E+00  2.500560318325E+00  2.412955978747E+00
  2.326408260423E+00  2.241046872897E+00  2.156990326620E+00  2.074345511982E+00
  1.993207391955E+00  1.913659091897E+00  1.835773282332E+00  1.759614377599E+00
  1.685239136745E+00  1.612696485826E+00  1.542027950761E+00  1.473267893015E+00
  1.406443795061E+00  1.341576555085E+00  1.278680792024E+00  1.217765158741E+00
  1.158832661106E+00  1.101880981232E+00  1.046902802724E+00  9.938861362742E-01
  9.428146439496E-01  8.936679606340E-01  8.464220112175E-01  8.010493222654E-01
  7.575193270100E-01  7.157986626424E-01  6.758514590106E-01  6.376396178578E-01
  6.011230821001E-01  5.662600943994E-01  5.330074446682E-01  5.013207061302E-01
  4.711544596694E-01  4.424625062948E-01  4.151980676221E-01  3.893139743549E-01
  3.647628428126E-01  3.414972396154E-01  3.194698346934E-01  2.986335428322E-01
  2.789416540157E-01  2.603479528578E-01  2.428068274488E-01  2.262733679672E-01
  2.107034554280E-01  1.960538409521E-01  1.822822159568E-01  1.693472736712E-01
  1.572087623863E-01  1.458275308514E-01  1.351655662277E-01  1.251860250059E-01
  1.158532572919E-01  1.071328248599E-01  9.899151336461E-02  9.139733909826E-02
  8.431955067216E-02  7.772862599354E-02  7.159626490175E-02  6.589537781995E-02
  6.060007077008E-02  5.568562709050E-02  5.112848618700E-02  4.690621963814E-02
  4.299750496633E-02  3.938209737521E-02  3.604079974277E-02  3.295543114777E-02
  3.010879419417E-02  2.748464138523E-02  2.506764078495E-02  2.284334118993E-02
  2.079813702003E-02  1.891923312092E-02  1.719460965613E-02  1.561298725052E-02
  1.416379253196E-02  1.283712420207E-02  1.162371975221E-02  1.051492292586E-02
  9.502652014524E-03  8.579369060235E-03  7.738050025065E-03  6.972155975501E-03
  6.275605318086E-03  5.642747112020E-03  5.068335474609E-03  4.547505086497E-03
  4.075747795639E-03  3.648890311823E-03  3.263072977394E-03  2.914729594466E-03
  2.600568284459E-03  2.317553352121E-03  2.062888123267E-03  1.833998723266E-03
  1.628518761697E-03  1.444274887597E-03  1.279273179180E-03  1.131686331817E-03
  9.998416083151E-04  8.822095160906E-04  7.773931765913E-04  6.841183532925E-04
  6.012241056466E-04  5.276540375265E-04  4.624481098955E-04  4.047349886479E-04
  3.537248997587E-04  3.087029650579E-04  2.690229930720E-04  2.341017004623E-04
  2.034133406221E-04  1.764847169775E-04  1.528905594641E-04  1.322492435386E-04
  1.142188319226E-04  9.849342007743E-05  8.479976717964E-05  7.289419510478E-05
  6.255973864679E-05  5.360353089632E-05  4.585440838403E-05  3.916072126317E-05
  3.338833446350E-05  2.841880639657E-05  2.414773243130E-05  2.048324098951E-05
  1.734463073262E-05  1.466113792326E-05  1.237082364726E-05  1.041957117272E-05
  8.760184300188E-06  7.351578122887E-06  6.158054164002E-06  5.148652390855E-06
  4.296573119921E-06  3.578662322404E-06  2.974954315766E-06  2.468266281820E-06
  2.043839485868E-06  1.689022483643E-06  1.392991993059E-06  1.146507476076E-06
  9.416958221672E-07  7.718628494442E-07  6.313286425083E-07  5.152840282667E-07
  4.196657527307E-07  3.410481639378E-07  2.765494293570E-07  2.237505212699E-07
  1.806253915465E-07  1.454809288526E-07  1.169054475782E-07  9.372459958685E-08
  7.496372821039E-08  5.981579967547E-08  4.761415126042E-08  3.780938884012E-08
  2.994984993795E-08  2.366512279493E-08  1.865217807599E-08  1.466372840762E-08
  1.149848268469E-08  8.993007658151E-09  7.014949334950E-09  5.457401759486E-09
  4.234241330469E-09  3.276271424659E-09  2.528045194133E-09  1.945254382665E-09
  1.492589237419E-09  1.141989407598E-09  8.712184214209E-10  6.627051857369E-10
  5.026051985129E-10  3.800420170005E-10  2.864961726412E-10  2.153143347752E-10
  1.613162457841E-10  1.204809090698E-10  8.969682052420E-11  6.656379146875E-11
  4.923620100317E-11  3.629941124133E-11  2.667264275822E-11  1.953289343904E-11
  1.425553764660E-11  1.036810316720E-11  7.514423752643E-12  5.426933081393E-12
  3.905325008572E-12  2.800174646182E-12  2.000411446618E-12  1.423772622543E-12
  1.009554154757E-12  7.131265730055E-13  5.018012432580E-13  3.517262743203E-13
  2.455644297329E-13  1.707627050637E-13  1.182678246122E-13  8.157649558202E-14
  5.603597188738E-14  3.833103158875E-14  2.610921852243E-14  1.770821033405E-14
  1.195833026554E-14  8.040046043600E-15  5.381650233083E-15  3.586062055910E-15
  2.378710472779E-15  1.570588435504E-15  1.032179487135E-15  6.751407208861E-16
  4.394940188458E-16  2.847100179197E-16  0.000000000000E+00  0.000000000000E+00
  0.000000000000E+00  0.000000000000E+00  0.000000000000E+00  0.000000000000E+00
  0.000000000000E+00  0.000000000000E+00  0.000000000000E+00  0.000000000000E+00
  0.000000000000E+00  0.000000000000E+00  0.000000000000E+00  0.000000000000E+00
  0.000000000000E+00  0.000000000000E+00  0.000000000000E+00  0.000000000000E+00
  0.000000000000E+00  0.000000000000E+00  0.000000000000E+00  0.000000000000E+00
  0.000000000000E+00  0.000000000000E+00  0.000000000000E+00  0.000000000000E+00
  0.000000000000E+00  0.000000000000E+00  0.000000000000E+00  0.000000000000E+00
  0.000000000000E+00  0.000000000000E+00  0.000000000000E+00  0.000000000000E+00
  0.000000000000E+00  0.000000000000E+00  0.000000000000E+00  0.000000000000E+00
  0.000000000000E+00  0.000000000000E+00  0.000000000000E+00  0.000000000000E+00
  0.000000000000E+00  0.000000000000E+00  0.000000000000E+00  0.000000000000E+00
  0.000000000000E+00  0.000000000000E+00  0.000000000000E+00  0.000000000000E+00
  0.000000000000E+00  0.000000000000E+00  0.000000000000E+00  0.000000000000E+00
  0.000000000000E+00  0.000000000000E+00  0.000000000000E+00  0.000000000000E+00
  0.000000000000E+00  0.000000000000E+00  0.000000000000E+00  0.000000000000E+00
  0.000000000000E+00  0.000000000000E+00  0.000000000000E+00  0.000000000000E+00
  0.000000000000E+00
</data>
</radfunc>
</valence-charge>
<pseudocore-charge matching-radius="0.746510103478"
 number-of-continuous-derivatives="4">
<annotation model-charge-form="Teter function with specified parameters" />
<radfunc>
<data npts="256">
  3.199727928509E+01  3.199433066112E+01  3.198551669892E+01  3.197081353656E+01
  3.195037432562E+01  3.192350462544E+01  3.188926889523E+01  3.185007888731E+01
  3.180142606183E+01  3.174884877843E+01  3.168961646244E+01  3.162527262506E+01
  3.154756177407E+01  3.146646204814E+01  3.138550805425E+01  3.129233802605E+01
  3.118515146619E+01  3.108365030818E+01  3.096966039898E+01  3.084169784813E+01
  3.069811661383E+01  3.057078802865E+01  3.043128124935E+01  3.027849421478E+01
  3.011123828291E+01  2.992823426580E+01  2.972810896246E+01  2.956589855501E+01
  2.939257609558E+01  2.920745369588E+01  2.900981216515E+01  2.879890142898E+01
  2.857394133385E+01  2.833412290547E+01  2.807861013730E+01  2.780654239364E+01
  2.751703752030E+01  2.720919576471E+01  2.699333050312E+01  2.676863775153E+01
  2.653484467938E+01  2.629167898195E+01  2.603887000584E+01  2.577614999976E+01
  2.550325549872E+01  2.521992884928E+01  2.492591988376E+01  2.462098775070E+01
  2.430490290849E+01  2.397744928849E+01  2.363842663303E+01  2.328765301256E+01
  2.292496752491E+01  2.255023317787E+01  2.216333995431E+01  2.176420805660E+01
  2.135279132430E+01  2.092908081584E+01  2.049310854092E+01  2.004495132643E+01
  1.958473479344E+01  1.911263741770E+01  1.862889463992E+01  1.813380298549E+01
  1.762772414639E+01  1.711108897002E+01  1.658440129190E+01  1.631746606401E+01
  1.604824154037E+01  1.577681278321E+01  1.550327003285E+01  1.522770878749E+01
  1.495022987437E+01  1.467093951167E+01  1.438994936004E+01  1.410737656300E+01
  1.382334377523E+01  1.353797917774E+01  1.325141647905E+01  1.296379490129E+01
  1.267525915026E+01  1.238595936837E+01  1.209605106955E+01  1.180569505499E+01
  1.151505730875E+01  1.122430887227E+01  1.093362569678E+01  1.064318847259E+01
  1.035318243455E+01  1.006379714264E+01  9.775226236958E+00  9.487667166450E+00
  9.201320890642E+00  8.916391553908E+00  8.633086131795E+00  8.351614049112E+00
  8.072186769593E+00  7.795017357110E+00  7.520320008569E+00  7.248309558794E+00
  6.979200957917E+00  6.713208721966E+00  6.450546357612E+00  6.191425762216E+00
  5.936056600613E+00  5.684645660312E+00  5.437396187050E+00  5.194507202957E+00
  4.956172809831E+00  4.722581480366E+00  4.493915340449E+00  4.270349445938E+00
  4.052051057667E+00  3.839178918674E+00  3.631882537981E+00  3.430301485488E+00
  3.234564702828E+00  3.044789835258E+00  2.861082589867E+00  2.683536125560E+00
  2.512230480430E+00  2.347232042218E+00  2.188593067616E+00  2.036351256160E+00
  1.890529384424E+00  1.751135006066E+00  1.618160223111E+00  1.491581533579E+00
  1.371359760214E+00  1.257440064662E+00  1.149752050919E+00  1.048209961279E+00
  9.527129673404E-01  8.631455578646E-01  7.793780244122E-01  7.012670447926E-01
  6.286563633426E-01  5.613775659977E-01  4.992509470084E-01  4.420864629949E-01
  3.896847688489E-01  3.418383287984E-01  2.983325947536E-01  2.589472428941E-01
  2.234574583303E-01  1.916352566293E-01  1.632508300345E-01  1.380739053745E-01
  1.158750999592E-01  9.642726123424E-02  7.950677563052E-02  6.489483191794E-02
  5.237862448237E-02  4.175248229932E-02  3.281890999243E-02  2.538952824743E-02
  1.928590200230E-02  1.434024624958E-02  1.039600095417E-02  7.308268492141E-03
  4.944109125792E-03  3.182692314533E-03  1.915304078153E-03  1.045213130427E-03
  4.874010320399E-04  1.681641121637E-04  2.459731358385E-05  3.972360434016E-06
  6.302466347266E-05  1.671651001838E-04  2.896341749245E-04  4.106170236442E-04
  5.163382335053E-04  5.981554670038E-04  6.516703940351E-04  6.758744410379E-04
  6.723453788119E-04  6.445088234022E-04  5.969763699458E-04  5.349693881796E-04
  4.638345676875E-04  3.886542123761E-04  3.139511593884E-04  2.434851564035E-04
  1.801346931631E-04  1.258557640312E-04  8.170694413351E-05  4.792858172375E-05
  2.406291165624E-05  9.101520335017E-06  1.646851892613E-06  7.531653393027E-08
  2.690989603523E-06  7.860786956972E-06  1.412425360708E-05  2.027357120085E-05
  2.540192412978E-05  2.892080744564E-05  3.054906108759E-05  3.027823916471E-05
  2.832026145707E-05  2.504407339059E-05  2.090822887183E-05  1.639592142739E-05
  1.195808255533E-05  7.968843252590E-06  4.696050460002E-06  2.287802422515E-06
  7.742820677771E-07  8.268487625867E-08  6.189416611383E-08  5.128523789065E-07
  1.220364407392E-06  1.982347072396E-06  2.633252112691E-06  3.059434574569E-06
  3.205473553277E-06  3.071716985454E-06  2.704455461790E-06  2.180991012928E-06
  1.592353785980E-06  1.026483907192E-06  5.543493583502E-07  2.207841179566E-07
  4.092375654527E-08  0.000000000000E+00  0.000000000000E+00  0.000000000000E+00
  0.000000000000E+00  0.000000000000E+00  0.000000000000E+00  0.000000000000E+00
  0.000000000000E+00  0.000000000000E+00  0.000000000000E+00  0.000000000000E+00
  0.000000000000E+00  0.000000000000E+00  0.000000000000E+00  0.000000000000E+00
  0.000000000000E+00  0.000000000000E+00  0.000000000000E+00  0.000000000000E+00
  0.000000000000E+00  0.000000000000E+00  0.000000000000E+00  0.000000000000E+00
  0.000000000000E+00  0.000000000000E+00  0.000000000000E+00  0.000000000000E+00
  0.000000000000E+00  0.000000000000E+00  0.000000000000E+00  0.000000000000E+00
</data>
</radfunc>
</pseudocore-charge>
<semilocal-potentials set="scalar_relativistic">
<slps n="3" l="s" rc="1.56396656813" eref="-0.892528430949">
<radfunc>
<data npts="256">
  5.093292714479E+01  5.089955978538E+01  5.080000461064E+01  5.063454822036E+01
  5.040581886416E+01  5.010736297845E+01  4.973072039523E+01  4.930449116856E+01
  4.878251088451E+01  4.822715923756E+01  4.761211545966E+01  4.695638834476E+01
  4.618112949393E+01  4.539089934279E+01  4.462060962399E+01  4.375614967131E+01
  4.278969476271E+01  4.190101451045E+01  4.093237949470E+01  3.988034511092E+01
  3.874213805598E+01  3.776820554932E+01  3.673736534235E+01  3.564959698405E+01
  3.450542717496E+01  3.330598206206E+01  3.205303101038E+01  3.107964926575E+01
  3.007881887443E+01  2.905204822911E+01  2.800106453464E+01  2.692780821447E+01
  2.583442378869E+01  2.472324719389E+01  2.359678961612E+01  2.245771801378E+01
  2.130883261399E+01  2.015304176760E+01  1.938015184776E+01  1.860642000671E+01
  1.783275230038E+01  1.706005714099E+01  1.628924130565E+01  1.552120597448E+01
  1.475684283736E+01  1.399703030732E+01  1.324262987726E+01  1.249448265401E+01
  1.175340610163E+01  1.102019102230E+01  1.029559879973E+01  9.580358926552E+00
  8.875166832589E+00  8.180682027452E+00  7.497526566270E+00  6.826283843629E+00
  6.167497716729E+00  5.521671955054E+00  4.889270010480E+00  4.270715098472E+00
  3.666390578350E+00  3.076640618055E+00  2.501771126904E+00  1.942050938091E+00
  1.397713221388E+00  8.689571056314E-01  3.559494898350E-01  1.053951963012E-01
 -1.411729784626E-01 -3.837423317828E-01 -6.223017792406E-01 -8.568417818667E-01
 -1.087354271817E+00 -1.313832576891E+00 -1.536271343743E+00 -1.754666460359E+00
 -1.969014977542E+00 -2.179315029755E+00 -2.385565755653E+00 -2.587767217986E+00
 -2.785920323489E+00 -2.980026742634E+00 -3.170088829440E+00 -3.356109541529E+00
 -3.538092360485E+00 -3.716041212717E+00 -3.889960390901E+00 -4.059854476162E+00
 -4.225728261144E+00 -4.387586674050E+00 -4.545434703877E+00 -4.699277326962E+00
 -4.849119435075E+00 -4.994965765246E+00 -5.136820831671E+00 -5.274688860029E+00
 -5.408573724648E+00 -5.538478889126E+00 -5.664407351114E+00 -5.786361592178E+00
 -5.904343533840E+00 -6.018354501233E+00 -6.128395196024E+00 -6.234465680591E+00
 -6.336565375860E+00 -6.434693075450E+00 -6.528846979188E+00 -6.619024749257E+00
 -6.705223592488E+00 -6.787440372254E+00 -6.865671753292E+00 -6.939914382297E+00
 -7.010165106328E+00 -7.076421229923E+00 -7.138680810135E+00 -7.196942986762E+00
 -7.251208342601E+00 -7.301479285834E+00 -7.347760444003E+00 -7.390059056260E+00
 -7.428385348524E+00 -7.462752874668E+00 -7.493178806683E+00 -7.519684157857E+00
 -7.542293925782E+00 -7.561037146383E+00 -7.575946855964E+00 -7.587059965101E+00
 -7.594417055372E+00 -7.598062116804E+00 -7.598042249453E+00 -7.594407356265E+00
 -7.587209855603E+00 -7.576504440398E+00 -7.562347906937E+00 -7.544799070392E+00
 -7.523918776776E+00 -7.499770013430E+00 -7.472418112545E+00 -7.441931035981E+00
 -7.408379724641E+00 -7.371838492406E+00 -7.332385442955E+00 -7.290102887498E+00
 -7.245077742210E+00 -7.197401885726E+00 -7.147172459187E+00 -7.094492093827E+00
 -7.039469053944E+00 -6.982217286307E+00 -6.922856370565E+00 -6.861511369081E+00
 -6.798312578732E+00 -6.733395191439E+00 -6.666898874377E+00 -6.598967284647E+00
 -6.529747536555E+00 -6.459389642213E+00 -6.388045947890E+00 -6.315870589295E+00
 -6.243018988758E+00 -6.169647416137E+00 -6.095912633353E+00 -6.021971639754E+00
 -5.947981532153E+00 -5.874099489366E+00 -5.800482886335E+00 -5.727289537350E+00
 -5.654678061336E+00 -5.582808354386E+00 -5.511842145600E+00 -5.441943601510E+00
 -5.373279931947E+00 -5.306021936042E+00 -5.240344411532E+00 -5.176425987640E+00
 -5.114452593724E+00 -5.053910160318E+00 -4.994067781814E+00 -4.934947453266E+00
 -4.876527215710E+00 -4.818797460369E+00 -4.761745004928E+00 -4.705358578449E+00
 -4.649627895738E+00 -4.594543778559E+00 -4.540098119550E+00 -4.486283805359E+00
 -4.433094598372E+00 -4.380524982612E+00 -4.328569981489E+00 -4.277224957633E+00