<?xml version="1.0" encoding="UTF-8" ?>
<psml version="1.1" energy_unit="hartree" length_unit="bohr"
 uuid="381ed6a0-be6c-11e7-45e0-a900ff8626d1"
 xmlns="http://esl.cecam.org/PSML/ns/1.1">
<provenance creator="ONCVPSP-3.3.0+psml-3.3.0-73 (scalar-relativistic)"
 date="2017-10-31">
<annotation action="semilocal-pseudopotential-generation"
 action-cont="projectors-generation" />
<input-file name="oncvpsp-input">
<![CDATA[# atsym z nc nv iexc psfile
Nb 41 6 4 4 upf
# n l f
1 0 2.0
2 0 2.0
2 1 6.0
3 0 2.0
3 1 6.0
3 2 10.0
4 0 2.0
4 1 6.0
4 2 4.0
5 0 1.0
# lmax
2
# l rc ep ncon nbas qcut
0 1.5 0.0 4 7 7.8
1 1.4 0.0 4 7 9.0
2 1.4 0.0 4 7 9.2
# lloc lpopt rc5 dvloc0
4 5 1.25 0.0
# l nproj debl
0 2 1.0
1 2 1.8
2 2 1.5
# icmod fcfact rcfact
3 5.0 1.5
# epsh1 epsh2 depsh
-12.0 12.0 0.02
# rlmax drl
6.0 0.01
 0
]]>
</input-file>
</provenance>
<pseudo-atom-spec atomic-label="Nb" atomic-number="41" z-pseudo="13"
 flavor="Hamann&apos;s oncvpsp" relativity="scalar" spin-dft="no"
 core-corrections="yes">
<annotation pseudo-energy="-57.0753036458" />
<exchange-correlation>
<annotation oncvpsp-xc-code="4" oncvpsp-xc-type="GGA -- Perdew-Burke-Ernzerhof" />
<libxc-info number-of-functionals="2">
<functional name="Perdew, Burke &amp; Ernzerhof (GGA)" type="exchange" id="101" />
<functional name="Perdew, Burke &amp; Ernzerhof (GGA)" type="correlation"
 id="130" />
</libxc-info>
</exchange-correlation>
<valence-configuration total-valence-charge="13">
<shell n="4" l="s" occupation="2" />
<shell n="4" l="p" occupation="6" />
<shell n="4" l="d" occupation="4" />
<shell n="5" l="s" occupation="1" />
</valence-configuration>
</pseudo-atom-spec>
<grid npts="457">
<annotation type="sampled from oncvpsp log grid"
 recipe="r(i:1..N) = r1*exp(a*(i-1)) + r=0; resampled"
 recipe-cont="r1: scale; a: step" scale="0.121951219512E-04"
 step="0.119285708653E-01" delta="0.500000000000E-02" rmax="44.1280744696" />
<grid-data>
  0.000000000000E+00  5.039007004218E-03  1.006502104386E-02  1.509913653849E-02
  2.010408966061E-02  2.521820379404E-02  3.052125238152E-02  3.564092875491E-02
  4.112587609116E-02  4.633618645073E-02  5.158754969678E-02  5.675302309559E-02
  6.243571655217E-02  6.787294410245E-02  7.290876853877E-02  7.831822532726E-02
  8.412903607266E-02  8.929938654214E-02  9.478749322547E-02  1.006128845883E-01
  1.067962892646E-01  1.120155235337E-01  1.174898266497E-01  1.232316640651E-01
  1.292541104306E-01  1.355708793673E-01  1.421963546938E-01  1.473770980033E-01
  1.527465951054E-01  1.583117230044E-01  1.640796092595E-01  1.700576411136E-01
  1.762534749543E-01  1.826750461198E-01  1.893305790625E-01  1.962285978822E-01
  2.033779372432E-01  2.107877536900E-01  2.158770132150E-01  2.210891478221E-01
  2.264271242071E-01  2.318939806940E-01  2.374928289639E-01  2.432268558264E-01
  2.490993250334E-01  2.551135791370E-01  2.612730413917E-01  2.675812177031E-01
  2.740416986233E-01  2.806581613949E-01  2.874343720436E-01  2.943741875222E-01
  3.014815579057E-01  3.087605286398E-01  3.162152428433E-01  3.238499436665E-01
  3.316689767064E-01  3.396767924800E-01  3.478779489576E-01  3.562771141573E-01
  3.648790688015E-01  3.736887090386E-01  3.827110492296E-01  3.919512248022E-01
  4.014144951739E-01  4.111062467454E-01  4.210319959668E-01  4.260843799184E-01
  4.311973924774E-01  4.363717611871E-01  4.416082223214E-01  4.469075209892E-01
  4.522704112411E-01  4.576976561760E-01  4.631900280501E-01  4.687483083867E-01
  4.743732880873E-01  4.800657675444E-01  4.858265567549E-01  4.916564754360E-01
  4.975563531412E-01  5.035270293789E-01  5.095693537315E-01  5.156841859762E-01
  5.218723962079E-01  5.281348649624E-01  5.344724833420E-01  5.408861531421E-01
  5.473767869798E-01  5.539453084236E-01  5.605926521246E-01  5.673197639501E-01
  5.741276011175E-01  5.810171323309E-01  5.879893379189E-01  5.950452099739E-01
  6.021857524936E-01  6.094119815236E-01  6.167249253018E-01  6.241256244055E-01
  6.316151318983E-01  6.391945134811E-01  6.468648476429E-01  6.546272258146E-01
  6.624827525244E-01  6.704325455547E-01  6.784777361013E-01  6.866194689345E-01
  6.948589025618E-01  7.031972093925E-01  7.116355759052E-01  7.201752028161E-01
  7.288173052499E-01  7.375631129129E-01  7.464138702678E-01  7.553708367110E-01
  7.644352867516E-01  7.736085101926E-01  7.828918123149E-01  7.922865140627E-01
  8.017939522314E-01  8.114154796582E-01  8.211524654141E-01  8.310062949991E-01
  8.409783705390E-01  8.510701109855E-01  8.612829523173E-01  8.716183477452E-01
  8.820777679181E-01  8.926627011331E-01  9.033746535467E-01  9.142151493893E-01
  9.251857311819E-01  9.362879599561E-01  9.475234154756E-01  9.588936964613E-01
  9.704004208188E-01  9.820452258687E-01  9.938297685791E-01  1.005755725802E+00
  1.017824794512E+00  1.030038692046E+00  1.042399156350E+00  1.054907946227E+00
  1.067566841581E+00  1.080377643680E+00  1.093342175404E+00  1.106462281509E+00
  1.119739828887E+00  1.133176706834E+00  1.146774827316E+00  1.160536125244E+00
  1.174462558747E+00  1.188556109452E+00  1.202818782765E+00  1.217252608158E+00
  1.231859639456E+00  1.246641955130E+00  1.261601658591E+00  1.276740878494E+00
  1.292061769036E+00  1.307566510265E+00  1.323257308388E+00  1.339136396089E+00
  1.355206032842E+00  1.371468505236E+00  1.387926127299E+00  1.404581240826E+00
  1.421436215716E+00  1.438493450305E+00  1.455755371708E+00  1.473224436169E+00
  1.490903129403E+00  1.508793966956E+00  1.526899494559E+00  1.545222288494E+00
  1.563764955956E+00  1.582530135427E+00  1.601520497052E+00  1.620738743017E+00
  1.640187607933E+00  1.659869859228E+00  1.679788297539E+00  1.699945757110E+00
  1.720345106195E+00  1.740989247469E+00  1.761881118439E+00  1.783023691860E+00
  1.804419976162E+00  1.826073015876E+00  1.847985892067E+00  1.870161722772E+00
  1.892603663445E+00  1.915314907406E+00  1.938298686295E+00  1.961558270531E+00
  1.985096969777E+00  2.008918133414E+00  2.033025151015E+00  2.057421452828E+00
  2.082110510262E+00  2.107095836385E+00  2.132380986421E+00  2.157969558258E+00
  2.183865192957E+00  2.210071575273E+00  2.236592434176E+00  2.263431543386E+00
  2.290592721907E+00  2.318079834570E+00  2.345896792585E+00  2.374047554096E+00
  2.402536124745E+00  2.431366558242E+00  2.460542956941E+00  2.490069472424E+00
  2.519950306093E+00  2.550189709766E+00  2.580791986283E+00  2.611761490119E+00
  2.643102628000E+00  2.674819859536E+00  2.706917697851E+00  2.739400710225E+00
  2.772273518748E+00  2.805540800972E+00  2.839207290584E+00  2.873277778071E+00
  2.907757111408E+00  2.942650196745E+00  2.977961999106E+00  3.013697543095E+00
  3.049861913612E+00  3.086460256576E+00  3.123497779655E+00  3.160979753010E+00
  3.198911510046E+00  3.237298448167E+00  3.276146029545E+00  3.315459781900E+00
  3.355245299282E+00  3.395508242874E+00  3.436254341788E+00  3.477489393890E+00
  3.519219266616E+00  3.561449897816E+00  3.604187296590E+00  3.647437544149E+00
  3.691206794678E+00  3.735501276215E+00  3.780327291529E+00  3.825691219028E+00
  3.871599513656E+00  3.918058707820E+00  3.965075412314E+00  4.012656317261E+00
  4.060808193068E+00  4.109537891385E+00  4.158852346082E+00  4.208758574235E+00
  4.259263677126E+00  4.310374841251E+00  4.362099339346E+00  4.414444531418E+00
  4.467417865795E+00  4.521026880185E+00  4.575279202747E+00  4.630182553180E+00
  4.685744743818E+00  4.741973680744E+00  4.798877364913E+00  4.856463893292E+00
  4.914741460011E+00  4.973718357532E+00  5.033402977822E+00  5.093803813556E+00
  5.154929459319E+00  5.216788612830E+00  5.279390076184E+00  5.342742757099E+00
  5.406855670184E+00  5.471737938226E+00  5.537398793485E+00  5.603847579006E+00
  5.671093749955E+00  5.739146874954E+00  5.808016637453E+00  5.877712837103E+00
  5.948245391148E+00  6.019624335842E+00  6.091859827872E+00  6.164962145806E+00
  6.238941691556E+00  6.313808991855E+00  6.389574699757E+00  6.466249596154E+00
  6.543844591308E+00  6.622370726404E+00  6.701839175121E+00  6.782261245222E+00
  6.863648380165E+00  6.946012160727E+00  7.029364306655E+00  7.113716678335E+00
  7.199081278475E+00  7.285470253817E+00  7.372895896863E+00  7.461370647625E+00
  7.550907095397E+00  7.641517980541E+00  7.733216196308E+00  7.826014790664E+00
  7.919926968152E+00  8.014966091769E+00  8.111145684871E+00  8.208479433089E+00
  8.306981186286E+00  8.406664960521E+00  8.507544940048E+00  8.609635479328E+00
  8.712951105080E+00  8.817506518341E+00  8.923316596561E+00  9.030396395720E+00
  9.138761152469E+00  9.248426286298E+00  9.359407401734E+00  9.471720290555E+00
  9.585380934041E+00  9.700405505250E+00  9.816810371313E+00  9.934612095769E+00
  1.005382744092E+01  1.017447337021E+01  1.029656705065E+01  1.042012585526E+01
  1.054516736552E+01  1.067170937391E+01  1.079976988640E+01  1.092936712503E+01
  1.106051953053E+01  1.119324576490E+01  1.132756471408E+01  1.146349549065E+01
  1.160105743653E+01  1.174027012577E+01  1.188115336728E+01  1.202372720769E+01
  1.216801193418E+01  1.231402807739E+01  1.246179641432E+01  1.261133797129E+01
  1.276267402695E+01  1.291582611527E+01  1.307081602865E+01  1.322766582100E+01
  1.338639781085E+01  1.354703458458E+01  1.370959899960E+01  1.387411418759E+01
  1.404060355784E+01  1.420909080054E+01  1.437959989014E+01  1.455215508882E+01
  1.472678094989E+01  1.490350232129E+01  1.508234434914E+01  1.526333248133E+01
  1.544649247111E+01  1.563185038076E+01  1.581943258533E+01  1.600926577636E+01
  1.620137696567E+01  1.639579348926E+01  1.659254301113E+01  1.679165352727E+01
  1.699315336959E+01  1.719707121003E+01  1.740343606455E+01  1.761227729732E+01
  1.782362462489E+01  1.803750812039E+01  1.825395821783E+01  1.847300571645E+01
  1.869468178505E+01  1.891901796647E+01  1.914604618206E+01  1.937579873625E+01
  1.960830832108E+01  1.984360802094E+01  2.008173131719E+01  2.032271209299E+01
  2.056658463811E+01  2.081338365377E+01  2.106314425761E+01  2.131590198870E+01
  2.157169281257E+01  2.183055312632E+01  2.209251976383E+01  2.235763000100E+01
  2.262592156101E+01  2.289743261974E+01  2.317220181118E+01  2.345026823292E+01
  2.373167145171E+01  2.401645150913E+01  2.430464892724E+01  2.459630471437E+01
  2.489146037094E+01  2.519015789539E+01  2.549243979014E+01  2.579834906762E+01
  2.610792925643E+01  2.642122440751E+01  2.673827910040E+01  2.705913844960E+01
  2.738384811100E+01  2.771245428833E+01  2.804500373979E+01  2.838154378467E+01
  2.872212231008E+01  2.906678777780E+01  2.941558923114E+01  2.976857630191E+01
  3.012579921753E+01  3.048730880814E+01  3.085315651384E+01  3.122339439201E+01
  3.159807512471E+01  3.197725202621E+01  3.236097905052E+01  3.274931079913E+01
  3.314230252872E+01  3.354001015906E+01  3.394249028097E+01  3.434980016434E+01
  3.476199776632E+01  3.517914173951E+01  3.560129144039E+01  3.602850693767E+01
  3.646084902092E+01  3.689837920917E+01  3.734115975968E+01  3.778925367680E+01
  3.824272472092E+01  3.870163741757E+01  3.916605706658E+01  3.963604975138E+01
  4.011168234840E+01  4.059302253658E+01  4.108013880702E+01  4.157310047270E+01
  4.207197767837E+01  4.257684141052E+01  4.308776350744E+01  4.360481666953E+01
  4.412807446957E+01
</grid-data>
</grid>
<valence-charge total-charge="13" is-unscreening-charge="yes"
 rescaled-to-z-pseudo="no">
<radfunc>
<data npts="457">
  5.080324955739E-02  5.102208151415E-02  5.167685328592E-02  5.277127137441E-02
  5.429711446275E-02  5.631092130027E-02  5.888981943490E-02  6.185985088198E-02
  6.557370239544E-02  6.962039130947E-02  7.422075903478E-02  7.926799249968E-02
  8.543313619567E-02  9.194826425448E-02  9.853452447161E-02  1.062173649815E-01
  1.151923641771E-01  1.238262104190E-01  1.336793214907E-01  1.449387268918E-01
  1.578233985311E-01  1.694725507415E-01  1.824774941129E-01  1.970115532536E-01
  2.132725759623E-01  2.314866599362E-01  2.519124446859E-01  2.688597781114E-01
  2.873574254345E-01  3.075610651961E-01  3.296431566535E-01  3.537947550128E-01
  3.802274965342E-01  4.091757601479E-01  4.408990094583E-01  4.756843151234E-01
  5.138490522767E-01  5.557437605731E-01  5.859351562349E-01  6.180795242801E-01
  6.523091850805E-01  6.887650518952E-01  7.275970469118E-01  7.689645088610E-01
  8.130365855620E-01  8.599926034968E-01  9.100224050867E-01  9.633266427379E-01
  1.020117016937E+00  1.080616443681E+00  1.145059134331E+00  1.213690568575E+00
  1.286767338564E+00  1.364556839457E+00  1.447336778629E+00  1.535394472588E+00
  1.629025897395E+00  1.728534454983E+00  1.834229414434E+00  1.946423984018E+00
  2.065432966740E+00  2.191569949508E+00  2.325143973941E+00  2.466455635514E+00
  2.615792557541E+00  2.773424187634E+00  2.939595867199E+00  3.025952670346E+00
  3.114522129624E+00  3.205325015950E+00  3.298379190544E+00  3.393699324394E+00
  3.491296604482E+00  3.591178426858E+00  3.693348076763E+00  3.797804396073E+00
  3.904541438482E+00  4.013548112945E+00  4.124807816042E+00  4.238298054080E+00
  4.353990055904E+00  4.471848377561E+00  4.591830500153E+00  4.713886422406E+00
  4.837958249698E+00  4.963979781509E+00  5.091876099497E+00  5.221563158637E+00
  5.352947384127E+00  5.485925277021E+00  5.620383031824E+00  5.756196169554E+00
  5.893229190049E+00  6.031335247596E+00  6.170355854199E+00  6.310120615100E+00
  6.450447001410E+00  6.591140164941E+00  6.731992800575E+00  6.872785061672E+00
  7.013284534219E+00  7.153246275504E+00  7.292412923243E+00  7.430514881060E+00
  7.567270586250E+00  7.702386865618E+00  7.835559385064E+00  7.966473198321E+00
  8.094803399914E+00  8.220215887004E+00  8.342368234232E+00  8.460910685038E+00
  8.575487262202E+00  8.685736999442E+00  8.791295294939E+00  8.891795386532E+00
  8.986869947072E+00  9.076152797065E+00  9.159280730261E+00  9.235895446220E+00
  9.305645582228E+00  9.368188835119E+00  9.423194161723E+00  9.470344044754E+00
  9.509336808995E+00  9.539888970734E+00  9.561737601468E+00  9.574642685078E+00
  9.578389445914E+00  9.572790623655E+00  9.557688669393E+00  9.532957836201E+00
  9.498506136557E+00  9.454277138427E+00  9.400251571570E+00  9.336448715881E+00
  9.262927544197E+00  9.179787593175E+00  9.087169537496E+00  8.985255444848E+00
  8.874268691904E+00  8.754473524792E+00  8.626174251402E+00  8.489714057225E+00
  8.345473441213E+00  8.193868273405E+00  8.035347481625E+00  7.870390380362E+00
  7.699503660930E+00  7.523218068013E+00  7.342084793557E+00  7.156671624680E+00
  6.967558887510E+00  6.775335233615E+00  6.580593319753E+00  6.383925434914E+00
  6.185919130965E+00  5.987152914447E+00  5.788192057271E+00  5.589584583035E+00
  5.391857483587E+00  5.195513217299E+00  5.001026536294E+00  4.808841684257E+00
  4.619370000149E+00  4.432987956311E+00  4.250035652087E+00  4.070815776511E+00
  3.895593427282E+00  3.724597986421E+00  3.558026371076E+00  3.396044417407E+00
  3.238787433787E+00  3.086361657371E+00  2.938845828107E+00  2.796293766523E+00
  2.658737525579E+00  2.526188749829E+00  2.398640065509E+00  2.276066472194E+00
  2.158426737370E+00  2.045664778698E+00  1.937711028460E+00  1.834483770639E+00
  1.735890444803E+00  1.641828910620E+00  1.552188667796E+00  1.466852026931E+00
  1.385695227565E+00  1.308589500331E+00  1.235402070833E+00  1.165997103449E+00
  1.100236583899E+00  1.037981139914E+00  9.790907998943E-01  9.234256898811E-01
  8.708466696064E-01  8.212159087687E-01  7.743974050143E-01  7.302574454149E-01
  6.886650134862E-01  6.494921440158E-01  6.126142281542E-01  5.779102713674E-01
  5.452631069651E-01  5.145595679998E-01  4.856906203812E-01  4.585514600730E-01
  4.330415772346E-01  4.090647901435E-01  3.865292516916E-01  3.653474311135E-01
  3.454360736879E-01  3.267161408260E-01  3.091127330136E-01  2.925549978830E-01
  2.769760255709E-01  2.623127333795E-01  2.485057416186E-01  2.354992423640E-01
  2.232408627261E-01  2.116815240832E-01  2.007752986005E-01  1.904792642240E-01
  1.807533592159E-01  1.715602371784E-01  1.628651234066E-01  1.546356733028E-01
  1.468418334929E-01  1.394557061938E-01  1.324514172992E-01  1.258049885759E-01
  1.194942142906E-01  1.134985425258E-01  1.077989613799E-01  1.023778901985E-01
  9.721907592783E-02  9.230749464184E-02  8.762925825147E-02  8.317152636894E-02
  7.892242326799E-02  7.487095985310E-02  7.100696052583E-02  6.732099481619E-02
  6.380431362943E-02  6.044878994457E-02  5.724686379013E-02  5.419149131415E-02
  5.127609776013E-02  4.849453415723E-02  4.584103753193E-02  4.331019444902E-02
  4.089690769245E-02  3.859636589985E-02  3.640401596978E-02  3.431553806627E-02
  3.232682305167E-02  3.043395218548E-02  2.863317893380E-02  2.692091274103E-02
  2.529370462206E-02  2.374823443976E-02  2.228129973846E-02  2.088980600986E-02
  1.957075827286E-02  1.832125385345E-02  1.713847625508E-02  1.601969001424E-02
  1.496223644007E-02  1.396353013703E-02  1.302105622194E-02  1.213236814133E-02
  1.129508600451E-02  1.050689535104E-02  9.765546276053E-03  9.068852842277E-03
  8.414692712855E-03  7.801006944998E-03  7.225799890302E-03  6.687139153662E-03
  6.183155568764E-03  5.712043154102E-03  5.272059019351E-03  4.861523197460E-03
  4.478818383198E-03  4.122389563736E-03  3.790743531449E-03  3.482448273136E-03
  3.196132233540E-03  2.930483454168E-03  2.684248591136E-03  2.456231818023E-03
  2.245293621521E-03  2.050349499118E-03  1.870368569096E-03  1.704372103823E-03
  1.551431997753E-03  1.410669181643E-03  1.281251994426E-03  1.162394523840E-03
  1.053354926445E-03  9.534337370232E-04  8.619721766485E-04  7.783504678570E-04
  7.019861645209E-04  6.323325031042E-04  5.688767810858E-04  5.111387674486E-04
  4.586691492791E-04  4.110480177227E-04  3.678833958025E-04  3.288098099417E-04
  2.934869064490E-04  2.615981137180E-04  2.328493504746E-04  2.069677800619E-04
  1.837006104855E-04  1.628139397420E-04  1.440916458092E-04  1.273343205864E-04
  1.123582470190E-04  9.899441861721E-05  8.708760057979E-05  7.649543174377E-05
  6.708756660019E-05  5.874485663476E-05  5.135857026803E-05  4.482965067831E-05
  3.906801079088E-05  3.399186470718E-05  2.952709482869E-05  2.560665390195E-05
  2.217000117524E-05  1.916257181541E-05  1.653527868715E-05  1.424404554837E-05
  1.224937066649E-05  1.051591981293E-05  9.012147548773E-06  7.709945674830E-06
  6.584317685094E-06  5.613078035314E-06  4.776575017989E-06  4.057436022625E-06
  3.440333955236E-06  2.911773593974E-06  2.459896668144E-06  2.074304465246E-06
  1.745896794628E-06  1.466726166182E-06  1.229866077534E-06  1.029292342746E-06
  8.597764388132E-07  7.167898925245E-07  5.964187788354E-07  4.952874520481E-07
  4.104906822154E-07  3.395334206455E-07  2.802774696745E-07  2.308943825038E-07
  1.898239684584E-07  1.557378271657E-07  1.275073815723E-07  1.041759241931E-07
  8.493423332150E-08  6.909935600311E-08  5.609619229250E-08  4.544155062492E-08
  3.673037703692E-08  2.962389147201E-08  2.383939255930E-08  1.914151811932E-08
  1.533477231484E-08  1.225715192428E-08  9.774723778336E-09  7.777023081878E-09
  6.173158262976E-09  4.888522270287E-09  3.862023001281E-09  3.043756906773E-09
  2.393059899349E-09  1.876878607485E-09  1.468412871512E-09  1.145987274499E-09
  8.921155367224E-10  6.927268667532E-10  5.365279383689E-10  4.144781275801E-10
  3.193590682240E-10  2.454225320688E-10  1.881031682821E-10  1.437847998809E-10
  1.096108184426E-10  8.333078494550E-11  6.317667147969E-11  4.776329879488E-11
  3.600846738416E-11  2.706907058929E-11  2.029013979795E-11  1.516431998976E-11
  1.129974900282E-11  8.394636975493E-12  2.026184661263E-12  1.464409606733E-12
  1.054610372769E-12  7.567233145322E-13  5.409710093633E-13  3.852863229286E-13
  2.733673190775E-13  1.932161504102E-13  1.360361295675E-13  9.540234469038E-14
  6.664037679858E-14  4.636271631974E-14  3.212421286107E-14  2.216701476486E-14
  1.523251645370E-14  1.042327513695E-14  7.102037323735E-15  4.818210093317E-15
  3.254543700482E-15  2.188635072254E-15  1.465252514857E-15  9.765268515965E-16
  6.478357797147E-16  4.277902104319E-16  2.811627464204E-16  1.839167531340E-16
  1.197282517923E-16  7.756374642292E-17  5.000142051859E-17  3.207315290605E-17
  2.046966534906E-17  1.299760003912E-17  8.210553101748E-18  5.159549357604E-18
  3.225180722332E-18  2.005264577950E-18  1.240042975708E-18  7.626424339107E-19
  4.664399904239E-19  2.836822965646E-19  1.715540787875E-19  1.031507947864E-19
  6.166188905428E-20  3.664404636407E-20  2.164719542735E-20  1.271101852991E-20
  7.418362647936E-21  4.302816746007E-21  2.480175297042E-21  1.420573708054E-21
  8.084704492822E-22  0.000000000000E+00  0.000000000000E+00  0.000000000000E+00
  0.000000000000E+00
</data>
</radfunc>
</valence-charge>
<pseudocore-charge matching-radius="0.792286514063"
 number-of-continuous-derivatives="4">
<annotation model-charge-form="Teter function with specified parameters" />
<radfunc>
<data npts="290">
  4.752828416461E+01  4.752558457314E+01  4.751751448044E+01  4.750405043852E+01
  4.748533006161E+01  4.746071341957E+01  4.742933761043E+01  4.739340652428E+01
  4.734877740930E+01  4.730052080732E+01  4.724612165527E+01  4.718698664227E+01
  4.711550903633E+01  4.704084686504E+01  4.696624984566E+01  4.688031040188E+01
  4.678132832789E+01  4.668748365489E+01  4.658196082996E+01  4.646333669566E+01
  4.633002275106E+01  4.621161149989E+01  4.608167106670E+01  4.593911488986E+01
  4.578276155734E+01  4.561132813687E+01  4.542342339856E+01  4.527078391557E+01
  4.510735438663E+01  4.493241462060E+01  4.474520289878E+01  4.454491461789E+01
  4.433070107268E+01  4.410166841950E+01  4.385687686928E+01  4.359534016512E+01
  4.331602540834E+01  4.301785330539E+01  4.280804191715E+01  4.258900609853E+01
  4.236039300948E+01  4.212184161755E+01  4.187298309234E+01  4.161344128276E+01
  4.134283328519E+01  4.106077011128E+01  4.076685746436E+01  4.046069663426E+01
  4.014188552063E+01  3.981001979516E+01  3.946469421383E+01  3.910550409037E+01
  3.873204694248E+01  3.834392432263E+01  3.794074384512E+01  3.752212142120E+01
  3.708768371380E+01  3.663707082272E+01  3.616993921098E+01  3.568596488149E+01
  3.518484681254E+01  3.466631065854E+01  3.413011272083E+01  3.357604419070E+01
  3.300393566393E+01  3.241366192250E+01  3.180514697538E+01  3.149404005923E+01
  3.117836934506E+01  3.085814157061E+01  3.053336758119E+01  3.020406251264E+01
  2.987024597660E+01  2.953194224788E+01  2.918918045352E+01  2.884199476313E+01
  2.849042458016E+01  2.813451473350E+01  2.777431566897E+01  2.740988364017E+01
  2.704128089804E+01  2.666857587840E+01  2.629184338703E+01  2.591116478122E+01
  2.552662814725E+01  2.513832847287E+01  2.474636781381E+01  2.435085545356E+01
  2.395190805519E+01  2.354964980439E+01  2.314421254243E+01  2.273573588808E+01
  2.232436734708E+01  2.191026240817E+01  2.149358462408E+01  2.107450567643E+01
  2.065320542298E+01  2.022987192587E+01  1.980470145945E+01  1.937789849614E+01
  1.894967566886E+01  1.852025370856E+01  1.808986135530E+01  1.765873524132E+01
  1.722711974466E+01  1.679526681184E+01  1.636343574803E+01  1.593189297350E+01
  1.550091174481E+01  1.507077183947E+01  1.464175920304E+01  1.421416555731E+01
  1.378828796878E+01  1.336442837651E+01  1.294289307860E+01  1.252399217693E+01
  1.210803897961E+01  1.169534936127E+01  1.128624108116E+01  1.088103305944E+01
  1.048004461247E+01  1.008359464791E+01  9.692000820986E+00  9.305578653592E+00
  8.924640618144E+00  8.549495188658E+00  8.180445861772E+00  7.817790150937E+00
  7.461818557405E+00  7.112813522060E+00  6.771048362631E+00  6.436786201215E+00
  6.110278887540E+00  5.791765923805E+00  5.481473397366E+00  5.179612927973E+00
  4.886380636632E+00  4.601956143528E+00  4.326501602782E+00  4.060160782082E+00
  3.803058195454E+00  3.555298297617E+00  3.316964748453E+00  3.088119756148E+00
  2.868803507497E+00  2.659033693708E+00  2.458805139779E+00  2.268089545163E+00
  2.086835342957E+00  1.914967684243E+00  1.752388553499E+00  1.598977020146E+00
  1.454589630320E+00  1.319060941866E+00  1.192204204334E+00  1.073812184353E+00
  9.636581354604E-01  8.614969097197E-01  7.670662069866E-01  6.800879558978E-01
  6.002698189377E-01  5.273068121537E-01  4.608830283208E-01  4.006734506076E-01
  3.463458421107E-01  2.975626950350E-01  2.539832218309E-01  2.152653693030E-01
  1.810678356107E-01  1.510520692184E-01  1.248842282757E-01  1.022370786239E-01
  8.279180868951E-02  6.623973994315E-02  5.228391240630E-02  4.064052588325E-02
  3.104021919308E-02  2.322917166677E-02  1.697001354725E-02  1.204253466014E-02
  8.244183773377E-03  5.390354389220E-03  3.314456252956E-03  1.867775550536E-03
  9.191305231080E-04  3.543329628580E-04  7.546967777834E-05  2.142477629105E-08
  5.983991135754E-05  2.000061580494E-04  3.775957040863E-04  5.603777439241E-04
  7.254762308959E-04  8.580212223424E-04  9.498182334732E-04  9.980621039045E-04
  1.004119875789E-03  9.724044776121E-04  9.093576729671E-04  8.225568662237E-04
  7.199560799584E-04  6.092668773854E-04  4.974803597010E-04  3.905267975083E-04
  2.930651360181E-04  2.083907203655E-04  1.384462823844E-04  8.391865429297E-05
  4.440193866327E-05  1.860704075514E-05  4.597587941615E-06  3.330273463761E-08
  2.403792572616E-06  9.238354728409E-06  1.828060865068E-05  2.762036530434E-05
  3.577890328361E-05  4.174751270806E-05  4.498256175544E-05  4.536322811557E-05
  4.312024458758E-05  3.874540925007E-05  3.289214066214E-05  2.627701854583E-05
  1.959110976669E-05  1.342807178113E-05  8.233738929763E-06  4.279357767751E-06
  1.658091810863E-06  3.021057769326E-07  1.567966425920E-08  5.185599616139E-07
  1.493228396547E-06  2.629979323990E-06  3.664585270508E-06  4.404761004660E-06
  4.743414082070E-06  4.658560829615E-06  4.201548788144E-06  3.476638940824E-06
  2.615893489638E-06  1.753591319244E-06  1.004045188695E-06  4.458032319197E-07
  1.139418117427E-07  7.110240033522E-10  0.000000000000E+00  0.000000000000E+00
  0.000000000000E+00  0.000000000000E+00  0.000000000000E+00  0.000000000000E+00
  0.000000000000E+00  0.000000000000E+00  0.000000000000E+00  0.000000000000E+00
  0.000000000000E+00  0.000000000000E+00  0.000000000000E+00  0.000000000000E+00
  0.000000000000E+00  0.000000000000E+00  0.000000000000E+00  0.000000000000E+00
  0.000000000000E+00  0.000000000000E+00  0.000000000000E+00  0.000000000000E+00
  0.000000000000E+00  0.000000000000E+00  0.000000000000E+00  0.000000000000E+00
  0.000000000000E+00  0.000000000000E+00  0.000000000000E+00  0.000000000000E+00
  0.000000000000E+00  0.000000000000E+00  0.000000000000E+00  0.000000000000E+00
  0.000000000000E+00  0.000000000000E+00  0.000000000000E+00  0.000000000000E+00
  0.000000000000E+00  0.000000000000E+00  0.000000000000E+00  0.000000000000E+00
  0.000000000000E+00  0.000000000000E+00
</data>
</radfunc>
</pseudocore-charge>
<semilocal-potentials set="scalar_relativistic">
<slps n="4" l="s" rc="1.50879396696" eref="-2.14593737243">
<radfunc>
<data npts="290">
  6.775301417509E+01  6.769162078972E+01  6.750858232744E+01  6.720482968826E+01
  6.678583892592E+01  6.624072348303E+01  6.555537923209E+01  6.478325151122E+01
  6.384261417487E+01  6.284776983542E+01  6.175306313320E+01  6.059404613194E+01
  5.923441934779E+01  5.786028773562E+01  5.653210579180E+01  5.505463335408E+01
  5.341899466285E+01  5.192981863103E+01  5.032261042536E+01  4.859558122535E+01
  4.674849781550E+01  4.518537536121E+01  4.354809321898E+01  4.183924259290E+01
  4.006233034701E+01  3.822179802639E+01  3.632301796859E+01  3.486444955943E+01
  3.337959112014E+01  3.187165474981E+01  3.034407860861E+01  2.880049914897E+01
  2.724471943222E+01  2.568067409297E+01  2.411239163138E+01  2.254395481077E+01
  2.097946000829E+01  1.942297640713E+01  1.839175154006E+01  1.736702918446E+01
  1.634994476006E+01  1.534160338126E+01  1.434307559545E+01  1.335539345429E+01
  1.237954694862E+01  1.141648083213E+01  1.046709185335E+01  9.532226410132E+00
  8.612678635021E+00  7.709188914711E+00  6.822442841300E+00  5.953070588380E+00
  5.101646700398E+00  4.268690279679E+00  3.454665551918E+00  2.659982787932E+00
  1.884999556883E+00  1.130022284247E+00  3.953080862837E-01 -3.189331482106E-01
 -1.012536458593E+00 -1.685379325378E+00 -2.337379025123E+00 -2.968489856221E+00
 -3.578700263726E+00 -4.168029890297E+00 -4.736526579083E+00 -5.012984490586E+00
 -5.284263352983E+00 -5.550375732720E+00 -5.811335393283E+00 -6.067157202250E+00
 -6.317857039108E+00 -6.563451704020E+00 -6.803958827639E+00 -7.039396782127E+00
 -7.269784593479E+00 -7.495141855288E+00 -7.715488644055E+00 -7.930845436146E+00
 -8.141233026513E+00 -8.346672449263E+00 -8.547184900180E+00 -8.742791661278E+00
 -8.933514027480E+00 -9.119373235518E+00 -9.300390395105E+00 -9.476586422497E+00
 -9.647981976505E+00 -9.814597397048E+00 -9.976452646331E+00 -1.013356725273E+01
 -1.028596025751E+01 -1.043365016441E+01 -1.057665489232E+01 -1.071499173106E+01
 -1.084867730035E+01 -1.097772751248E+01 -1.110215753825E+01 -1.122198177687E+01
 -1.133721382989E+01 -1.144786647918E+01 -1.155395166954E+01 -1.165548049589E+01
 -1.175246319564E+01 -1.184490914632E+01 -1.193282686888E+01 -1.201622403711E+01
 -1.209510749344E+01 -1.216948327152E+01 -1.223935662597E+01 -1.230473206977E+01
 -1.236561341944E+01 -1.242200384862E+01 -1.247390595010E+01 -1.252132180674E+01
 -1.256425307145E+01 -1.260270105622E+01 -1.263666683052E+01 -1.266615132874E+01
 -1.269115546680E+01 -1.271168026758E+01 -1.272772699489E+01 -1.273929729563E+01
 -1.274639334980E+01 -1.274901802770E+01 -1.274717505415E+01 -1.274086917915E+01
 -1.273010635482E+01 -1.271489391841E+01 -1.269524078164E+01 -1.267115762657E+01
 -1.264265710897E+01 -1.260975407020E+01 -1.257246575922E+01 -1.253081206701E+01
 -1.248481577595E+01 -1.243450282742E+01 -1.237990261158E+01 -1.232104828361E+01
 -1.225797711145E+01 -1.219073086064E+01 -1.211935622224E+01 -1.204390529030E+01
 -1.196443609598E+01 -1.188101320538E+01 -1.179370838870E+01 -1.170260136826E+01
 -1.160778065310E+01 -1.150934446731E+01 -1.140740177912E+01 -1.130207343668E+01