<?xml version="1.0" encoding="UTF-8" ?>
<psml version="1.1" energy_unit="hartree" length_unit="bohr"
 uuid="020c1f30-be41-11e7-6c33-ccdb7ffff819"
 xmlns="http://esl.cecam.org/PSML/ns/1.1">
<provenance creator="ONCVPSP-3.3.0+psml-3.3.0-73 (scalar-relativistic)"
 date="2017-10-31">
<annotation action="semilocal-pseudopotential-generation"
 action-cont="projectors-generation" />
<input-file name="oncvpsp-input">
<![CDATA[# atsym z nc nv iexc psfile
He 2 0 1 4 upf
# n l f
1 0 2.0
# lmax
1
# l rc ep ncon nbas qcut
0 1.25 0.0 4 8 9.4
1 1.13 0.05 4 7 9.4
# lloc lpopt rc5 dvloc0
4 5 1.0 0.0
# l nproj debl
0 2 1.0
1 1 1.0
# icmod fcfact rcfact
0 0.25 0.0
# epsh1 epsh2 depsh
-12.0 12.0 0.02
# rlmax drl
6.0 0.01
 0
]]>
</input-file>
</provenance>
<pseudo-atom-spec atomic-label="He" atomic-number="2" z-pseudo="2"
 flavor="Hamann&apos;s oncvpsp" relativity="scalar" spin-dft="no"
 core-corrections="no">
<annotation pseudo-energy="-2.85848102130" />
<exchange-correlation>
<annotation oncvpsp-xc-code="4" oncvpsp-xc-type="GGA -- Perdew-Burke-Ernzerhof" />
<libxc-info number-of-functionals="2">
<functional name="Perdew, Burke &amp; Ernzerhof (GGA)" type="exchange" id="101" />
<functional name="Perdew, Burke &amp; Ernzerhof (GGA)" type="correlation"
 id="130" />
</libxc-info>
</exchange-correlation>
<valence-configuration total-valence-charge="2">
<shell n="1" l="s" occupation="2" />
</valence-configuration>
</pseudo-atom-spec>
<grid npts="457">
<annotation type="sampled from oncvpsp log grid"
 recipe="r(i:1..N) = r1*exp(a*(i-1)) + r=0; resampled"
 recipe-cont="r1: scale; a: step" scale="0.250000000000E-03"
 step="0.119285708653E-01" delta="0.500000000000E-02" rmax="44.2383759443" />
<grid-data>
  0.000000000000E+00  5.051602385059E-03  1.009017932864E-02  1.513687797741E-02
  2.015434136011E-02  2.528123861035E-02  3.059754257067E-02  3.573001596412E-02
  4.073979579344E-02  4.590119295367E-02  5.110325760530E-02  5.622023872390E-02
  6.184958435691E-02  6.723576846129E-02  7.309100954492E-02  7.851398768163E-02
  8.433932298996E-02  8.952259714325E-02  9.502442176619E-02  1.008643741373E-01
  1.070632347034E-01  1.122955148451E-01  1.177835013976E-01  1.235396909718E-01
  1.295771908995E-01  1.359097490801E-01  1.425517852856E-01  1.477454782566E-01
  1.531283968246E-01  1.587074351836E-01  1.644897387087E-01  1.704827131076E-01
  1.766940339056E-01  1.831316562762E-01  1.898038252291E-01  1.967190861709E-01
  2.038862958488E-01  2.113146336947E-01  2.164166142107E-01  2.216417769442E-01
  2.269930960067E-01  2.324736173167E-01  2.380864603332E-01  2.438348198315E-01
  2.497219677215E-01  2.557512549101E-01  2.619261132087E-01  2.682500572860E-01
  2.747266866691E-01  2.813596877920E-01  2.881528360941E-01  2.951099981688E-01
  3.022351339645E-01  3.095322990390E-01  3.170056468670E-01  3.246594312049E-01
  3.324980085119E-01  3.405258404295E-01  3.487474963208E-01  3.571676558720E-01
  3.657911117553E-01  3.746227723576E-01  3.836676645734E-01  3.929309366668E-01
  4.024178612017E-01  4.121338380425E-01  4.220843974282E-01  4.271494101974E-01
  4.322752031198E-01  4.374625055572E-01  4.427120556239E-01  4.480246002914E-01
  4.534008954949E-01  4.588417062408E-01  4.643478067157E-01  4.699199803963E-01
  4.755590201610E-01  4.812657284030E-01  4.870409171438E-01  4.928854081495E-01
  4.988000330473E-01  5.047856334439E-01  5.108430610452E-01  5.169731777778E-01
  5.231768559111E-01  5.294549781820E-01  5.358084379202E-01  5.422381391752E-01
  5.487449968454E-01  5.553299368075E-01  5.619938960492E-01  5.687378228018E-01
  5.755626766754E-01  5.824694287955E-01  5.894590619410E-01  5.965325706843E-01
  6.036909615326E-01  6.109352530709E-01  6.182664761078E-01  6.256856738211E-01
  6.331939019069E-01  6.407922287298E-01  6.484817354746E-01  6.562635163003E-01
  6.641386784959E-01  6.721083426378E-01  6.801736427495E-01  6.883357264625E-01
  6.965957551800E-01  7.049549042422E-01  7.134143630931E-01  7.219753354502E-01
  7.306390394756E-01  7.394067079493E-01  7.482795884447E-01  7.572589435061E-01
  7.663460508281E-01  7.755422034381E-01  7.848487098793E-01  7.942668943979E-01
  8.037980971306E-01  8.134436742962E-01  8.232049983878E-01  8.330834583684E-01
  8.430804598688E-01  8.531974253873E-01  8.634357944919E-01  8.737970240258E-01
  8.842825883141E-01  8.948939793739E-01  9.056327071264E-01  9.165002996119E-01
  9.274983032072E-01  9.386282828457E-01  9.498918222399E-01  9.612905241068E-01
  9.728260103960E-01  9.844999225208E-01  9.963139215910E-01  1.008269688650E+00
  1.020368924914E+00  1.032613352013E+00  1.045004712237E+00  1.057544768784E+00
  1.070235306009E+00  1.083078129681E+00  1.096075067238E+00  1.109227968044E+00
  1.122538703661E+00  1.136009168105E+00  1.149641278122E+00  1.163436973460E+00
  1.177398217141E+00  1.191526995747E+00  1.205825319696E+00  1.220295223532E+00
  1.234938766215E+00  1.249758031409E+00  1.264755127786E+00  1.279932189319E+00
  1.295291375591E+00  1.310834872098E+00  1.326564890564E+00  1.342483669250E+00
  1.358593473281E+00  1.374896594961E+00  1.391395354100E+00  1.408092098349E+00
  1.424989203530E+00  1.442089073972E+00  1.459394142860E+00  1.476906872574E+00
  1.494629755045E+00  1.512565312105E+00  1.530716095851E+00  1.549084689001E+00
  1.567673705269E+00  1.586485789732E+00  1.605523619209E+00  1.624789902639E+00
  1.644287381471E+00  1.664018830049E+00  1.683987056009E+00  1.704194900681E+00
  1.724645239490E+00  1.745340982363E+00  1.766285074152E+00  1.787480495042E+00
  1.808930260982E+00  1.830637424114E+00  1.852605073203E+00  1.874836334082E+00
  1.897334370091E+00  1.920102382532E+00  1.943143611122E+00  1.966461334456E+00
  1.990058870469E+00  2.013939576915E+00  2.038106851838E+00  2.062564134060E+00
  2.087314903669E+00  2.112362682513E+00  2.137711034703E+00  2.163363567119E+00
  2.189323929925E+00  2.215595817084E+00  2.242182966889E+00  2.269089162491E+00
  2.296318232441E+00  2.323874051231E+00  2.351760539845E+00  2.379981666323E+00
  2.408541446319E+00  2.437443943675E+00  2.466693270999E+00  2.496293590251E+00
  2.526249113334E+00  2.556564102694E+00  2.587242871927E+00  2.618289786390E+00
  2.649709263826E+00  2.681505774992E+00  2.713683844292E+00  2.746248050424E+00
  2.779203027029E+00  2.812553463353E+00  2.846304104913E+00  2.880459754172E+00
  2.915025271222E+00  2.950005574477E+00  2.985405641371E+00  3.021230509067E+00
  3.057485275176E+00  3.094175098478E+00  3.131305199660E+00  3.168880862056E+00
  3.206907432400E+00  3.245390321589E+00  3.284335005448E+00  3.323747025514E+00
  3.363631989820E+00  3.403995573698E+00  3.444843520582E+00  3.486181642829E+00
  3.528015822543E+00  3.570352012414E+00  3.613196236563E+00  3.656554591401E+00
  3.700433246498E+00  3.744838445456E+00  3.789776506802E+00  3.835253824883E+00
  3.881276870782E+00  3.927852193231E+00  3.974986419550E+00  4.022686256585E+00
  4.070958491664E+00  4.119809993564E+00  4.169247713486E+00  4.219278686048E+00
  4.269910030281E+00  4.321148950644E+00  4.373002738052E+00  4.425478770908E+00
  4.478584516159E+00  4.532327530353E+00  4.586715460717E+00  4.641756046246E+00
  4.697457118801E+00  4.753826604227E+00  4.810872523477E+00  4.868602993759E+00
  4.927026229684E+00  4.986150544440E+00  5.045984350974E+00  5.106536163185E+00
  5.167814597144E+00  5.229828372309E+00  5.292586312777E+00  5.356097348530E+00
  5.420370516713E+00  5.485414962913E+00  5.551239942468E+00  5.617854821778E+00
  5.685269079639E+00  5.753492308595E+00  5.822534216298E+00  5.892404626894E+00
  5.963113482416E+00  6.034670844205E+00  6.107086894336E+00  6.180371937068E+00
  6.254536400313E+00  6.329590837116E+00  6.405545927162E+00  6.482412478288E+00
  6.560201428027E+00  6.638923845163E+00  6.718590931305E+00  6.799214022481E+00
  6.880804590751E+00  6.963374245840E+00  7.046934736790E+00  7.131497953631E+00
  7.217075929075E+00  7.303680840224E+00  7.391325010307E+00  7.480020910430E+00
  7.569781161355E+00  7.660618535292E+00  7.752545957715E+00  7.845576509208E+00
  7.939723427318E+00  8.035000108446E+00  8.131420109747E+00  8.228997151064E+00
  8.327745116877E+00  8.427678058280E+00  8.528810194979E+00  8.631155917319E+00
  8.734729788327E+00  8.839546545787E+00  8.945621104336E+00  9.052968557588E+00
  9.161604180279E+00  9.271543430442E+00  9.382801951608E+00  9.495395575027E+00
  9.609340321927E+00  9.724652405790E+00  9.841348234660E+00  9.959444413476E+00
  1.007895774644E+01  1.019990523939E+01  1.032230410227E+01  1.044617175149E+01
  1.057152581251E+01  1.069838412226E+01  1.082676473173E+01  1.095668590851E+01
  1.108816613941E+01  1.122122413309E+01  1.135587882268E+01  1.149214936856E+01
  1.163005516098E+01  1.176961582291E+01  1.191085121278E+01  1.205378142734E+01
  1.219842680447E+01  1.234480792612E+01  1.249294562123E+01  1.264286096869E+01
  1.279457530031E+01  1.294811020392E+01  1.310348752636E+01  1.326072937668E+01
  1.341985812920E+01  1.358089642675E+01  1.374386718387E+01  1.390879359008E+01
  1.407569911316E+01  1.424460750252E+01  1.441554279255E+01  1.458852930606E+01
  1.476359165773E+01  1.494075475762E+01  1.512004381471E+01  1.530148434049E+01
  1.548510215258E+01  1.567092337841E+01  1.585897445895E+01  1.604928215246E+01
  1.624187353828E+01  1.643677602074E+01  1.663401733299E+01  1.683362554099E+01
  1.703562904748E+01  1.724005659605E+01  1.744693727520E+01  1.765630052251E+01
  1.786817612878E+01  1.808259424232E+01  1.829958537323E+01  1.851918039771E+01
  1.874141056248E+01  1.896630748923E+01  1.919390317910E+01  1.942423001725E+01
  1.965732077746E+01  1.989320862679E+01  2.013192713031E+01  2.037351025587E+01
  2.061799237894E+01  2.086540828749E+01  2.111579318694E+01  2.136918270518E+01
  2.162561289764E+01  2.188512025242E+01  2.214774169545E+01  2.241351459579E+01
  2.268247677094E+01  2.295466649219E+01  2.323012249010E+01  2.350888395998E+01
  2.379099056750E+01  2.407648245431E+01  2.436540024376E+01  2.465778504669E+01
  2.495367846725E+01  2.525312260885E+01  2.555616008016E+01  2.586283400112E+01
  2.617318800913E+01  2.648726626524E+01  2.680511346043E+01  2.712677482195E+01
  2.745229611982E+01  2.778172367325E+01  2.811510435733E+01  2.845248560962E+01
  2.879391543694E+01  2.913944242218E+01  2.948911573124E+01  2.984298512002E+01
  3.020110094146E+01  3.056351415276E+01  3.093027632259E+01  3.130143963846E+01
  3.167705691412E+01  3.205718159709E+01  3.244186777626E+01  3.283117018957E+01
  3.322514423185E+01  3.362384596263E+01  3.402733211418E+01  3.443566009955E+01
  3.484888802075E+01  3.526707467700E+01  3.569027957312E+01  3.611856292800E+01
  3.655198568313E+01  3.699060951133E+01  3.743449682547E+01  3.788371078737E+01
  3.833831531682E+01  3.879837510062E+01  3.926395560183E+01  3.973512306905E+01
  4.021194454588E+01  4.069448788043E+01  4.118282173500E+01  4.167701559582E+01
  4.217713978297E+01  4.268326546036E+01  4.319546464589E+01  4.371381022164E+01
  4.423837594430E+01
</grid-data>
</grid>
<valence-charge total-charge="2" is-unscreening-charge="yes"
 rescaled-to-z-pseudo="no">
<radfunc>
<data npts="457">
  1.767233646657E+01  1.767058216097E+01  1.766533773123E+01  1.765658999650E+01
  1.764443154833E+01  1.762845141434E+01  1.760809635798E+01  1.758480376597E+01
  1.755863375983E+01  1.752814214886E+01  1.749380740635E+01  1.745652938354E+01
  1.741153442545E+01  1.736460919830E+01  1.730934259547E+01  1.725424468032E+01
  1.719091826680E+01  1.713101049027E+01  1.706380088423E+01  1.698844022814E+01
  1.690399141782E+01  1.682919929272E+01  1.674735910580E+01  1.665785470358E+01
  1.656002605576E+01  1.645316828325E+01  1.633653120573E+01  1.624215899814E+01
  1.614148766437E+01  1.603415187790E+01  1.591977350119E+01  1.579796251624E+01
  1.566831824337E+01  1.553043088821E+01  1.538388345996E+01  1.522825410643E+01
  1.506311891330E+01  1.488805521616E+01  1.476562371441E+01  1.463847222723E+01
  1.450648175409E+01  1.436953656219E+01  1.422752496932E+01  1.408034019056E+01
  1.392788124992E+01  1.377005395790E+01  1.360677195507E+01  1.343795782095E+01
  1.326354424697E+01  1.308347527059E+01  1.289770756732E+01  1.270621179516E+01
  1.250897398532E+01  1.230599697082E+01  1.209730184307E+01  1.188292942450E+01
  1.166294174323E+01  1.143742349345E+01  1.120648346306E+01  1.097025590766E+01
  1.072890184740E+01  1.048261026136E+01  1.023159915135E+01  9.976116445294E+00
  9.716440708719E+00  9.452881631127E+00  9.185780253557E+00  9.051016340749E+00
  8.915508903188E+00  8.779309306025E+00  8.642470801429E+00  8.505048496240E+00
  8.367099313336E+00  8.228681946499E+00  8.089856808613E+00  7.950685973032E+00
  7.811233107980E+00  7.671563403871E+00  7.531743493480E+00  7.391841364908E+00
  7.251926267324E+00  7.112068609515E+00  6.972339851298E+00  6.832812387898E+00
  6.693559427445E+00  6.554654861764E+00  6.416173130721E+00  6.278189080390E+00
  6.140777815392E+00  6.004014545786E+00  5.867974428957E+00  5.732732406978E+00
  5.598363040002E+00  5.464940336255E+00  5.332537579281E+00  5.201227153105E+00
  5.071080366050E+00  4.942167273967E+00  4.814556503676E+00  4.688315077446E+00
  4.563508239378E+00  4.440199284558E+00  4.318449391877E+00  4.198317461417E+00
  4.079859957305E+00  3.963130756925E+00  3.848181007370E+00  3.735058990005E+00
  3.623809993952E+00  3.514476199314E+00  3.407096570871E+00  3.301706762957E+00
  3.198339036161E+00  3.097022186422E+00  2.997781487028E+00  2.900638643956E+00
  2.805611764895E+00  2.712715342230E+00  2.621960250171E+00  2.533353756116E+00
  2.446899546273E+00  2.362597765463E+00  2.280445070942E+00  2.200434700010E+00
  2.122556551094E+00  2.046797277924E+00  1.973140396337E+00  1.901566403216E+00
  1.832052906984E+00  1.764574769057E+00  1.699104255584E+00  1.635611198797E+00
  1.574063167252E+00  1.514425644199E+00  1.456662213324E+00  1.400734751051E+00
  1.346603624592E+00  1.294227894878E+00  1.243565523486E+00  1.194573582638E+00
  1.147208467269E+00  1.101426108122E+00  1.057182184737E+00  1.014432337101E+00
  9.731323746363E-01  9.332384810649E-01  8.947074135745E-01  8.574966945568E-01
  8.215647940546E-01  7.868713009119E-01  7.533770804941E-01  7.210444167399E-01
  6.898371362299E-01  6.597207119300E-01  6.306623442889E-01  6.026310174678E-01
  5.755975286474E-01  5.495344886237E-01  5.244162922532E-01  5.002189502809E-01
  4.769194706839E-01  4.544949966127E-01  4.329228259704E-01  4.121804186302E-01
  3.922454119639E-01  3.730956358886E-01  3.547091274168E-01  3.370641446979E-01
  3.201391805399E-01  3.039129753993E-01  2.883645298294E-01  2.734731163770E-01
  2.592182909189E-01  2.455799034289E-01  2.325381081684E-01  2.200733732937E-01
  2.081664898732E-01  1.967985803090E-01  1.859511061589E-01  1.756058753544E-01
  1.657450488116E-01  1.563511464334E-01  1.474070525017E-01  1.388960204600E-01
  1.308016770861E-01  1.231080260596E-01  1.157994509251E-01  1.088607174573E-01
  1.022769754338E-01  9.603375982245E-02  9.011699139282E-02  8.451297676053E-02
  7.920840787730E-02  7.419036097882E-02  6.944629500473E-02  6.496404950647E-02
  6.073184205979E-02  5.673826519995E-02  5.297228289907E-02  4.942322660595E-02
  4.608079086981E-02  4.293502857029E-02  3.997634577683E-02  3.719549626137E-02
  3.458357568861E-02  3.213201550877E-02  2.983257657797E-02  2.767734253144E-02
  2.565871293495E-02  2.376939623965E-02  2.200240256508E-02  2.035103633525E-02
  1.880888879143E-02  1.736983040535E-02  1.602800321544E-02  1.477781310784E-02
  1.361392206318E-02  1.253124038909E-02  1.152491895718E-02  1.059034146226E-02
  9.723116720424E-03  8.919071021299E-03  8.174240548713E-03  7.484863882798E-03
  6.847374595338E-03  6.258393949079E-03  5.714723710576E-03  5.213339085101E-03
  4.751381781119E-03  4.326153210897E-03  3.935107832905E-03  3.575846640880E-03
  3.246110803618E-03  2.943775458933E-03  2.666843664550E-03  2.413440508163E-03
  2.181807378391E-03  1.970296397906E-03  1.777365019618E-03  1.601570786448E-03
  1.441566254893E-03  1.296094082324E-03  1.163982277663E-03  1.044139614892E-03
  9.355512085863E-04  8.372742504759E-04  7.484339058368E-04  6.682193683132E-04
  5.958800715866E-04  5.307220561168E-04  4.721044889939E-04  4.194363347538E-04
  3.721731748250E-04  3.298141730909E-04  2.918991848729E-04  2.580060064582E-04
  2.277477621311E-04  2.007704254945E-04  1.767504717160E-04  1.553926571844E-04
  1.364279229246E-04  1.196114179974E-04  1.047206389997E-04  9.155368168506E-05
  7.992760064526E-05  6.967687292995E-05  6.065196143426E-05  5.271797385411E-05
  4.575341299546E-05  3.964901422667E-05  3.430666588243E-05  2.963840846201E-05
  2.556550851426E-05  2.201760316490E-05  1.893191131813E-05  1.625250765244E-05
  1.392965562954E-05  1.191919584407E-05  1.018198615799E-05  8.683390188352E-06
  7.392810846475E-06  6.283265761792E-06  5.331001561722E-06  4.515144120007E-06
  3.817382028259E-06  3.221680688334E-06  2.714024565607E-06  2.282185284342E-06
  1.915513385519E-06  1.604751703832E-06  1.341868453688E-06  1.119908243234E-06
  9.328593603705E-07  7.755357949634E-07  6.434725767462E-07  5.328331184822E-07
  4.403273586650E-07  3.631395972637E-07  2.988650117156E-07  2.454539285359E-07
  2.011630085742E-07  1.645125812083E-07  1.342494347183E-07  1.093144368844E-07
  8.881442167411E-08  7.199783490464E-08  5.823368420851E-08  4.699338669834E-08
  3.783515166150E-08  3.039057564165E-08  2.435316362356E-08  1.946852296551E-08
  1.552600645395E-08  1.235160761863E-08  9.801935467910E-09  7.759117298790E-09
  6.126497414809E-09  4.825016644498E-09  3.790172683584E-09  2.969474663447E-09
  2.320317143826E-09  1.808209096065E-09  1.405302529460E-09  1.089173352260E-09
  8.418139743893E-10  6.488031647491E-10  4.986238757969E-10  3.821042363244E-10
  2.919607754628E-10  2.224262539514E-10  1.689473118378E-10  1.279395569299E-10
  9.658977065314E-11  7.269664642971E-11  5.454294357105E-11  4.079317506465E-11
  3.041198397812E-11  2.259922970866E-11  1.673852739781E-11  1.235658375014E-11
  9.091167163702E-12  6.665971717079E-12  4.870918234371E-12  3.546866594141E-12
  2.573649435500E-12  1.860829903360E-12  1.340596685377E-12  9.622878182413E-13
  6.881897393071E-13  4.903300409201E-13  3.480378072926E-13  2.460946899095E-13
  0.000000000000E+00  0.000000000000E+00  0.000000000000E+00  0.000000000000E+00
  0.000000000000E+00  0.000000000000E+00  0.000000000000E+00  0.000000000000E+00
  0.000000000000E+00  0.000000000000E+00  0.000000000000E+00  0.000000000000E+00
  0.000000000000E+00  0.000000000000E+00  0.000000000000E+00  0.000000000000E+00
  0.000000000000E+00  0.000000000000E+00  0.000000000000E+00  0.000000000000E+00
  0.000000000000E+00  0.000000000000E+00  0.000000000000E+00  0.000000000000E+00
  0.000000000000E+00  0.000000000000E+00  0.000000000000E+00  0.000000000000E+00
  0.000000000000E+00  0.000000000000E+00  0.000000000000E+00  0.000000000000E+00
  0.000000000000E+00  0.000000000000E+00  0.000000000000E+00  0.000000000000E+00
  0.000000000000E+00  0.000000000000E+00  0.000000000000E+00  0.000000000000E+00
  0.000000000000E+00  0.000000000000E+00  0.000000000000E+00  0.000000000000E+00
  0.000000000000E+00  0.000000000000E+00  0.000000000000E+00  0.000000000000E+00
  0.000000000000E+00  0.000000000000E+00  0.000000000000E+00  0.000000000000E+00
  0.000000000000E+00  0.000000000000E+00  0.000000000000E+00  0.000000000000E+00
  0.000000000000E+00  0.000000000000E+00  0.000000000000E+00  0.000000000000E+00
  0.000000000000E+00  0.000000000000E+00  0.000000000000E+00  0.000000000000E+00
  0.000000000000E+00  0.000000000000E+00  0.000000000000E+00  0.000000000000E+00
  0.000000000000E+00  0.000000000000E+00  0.000000000000E+00  0.000000000000E+00
  0.000000000000E+00  0.000000000000E+00  0.000000000000E+00  0.000000000000E+00
  0.000000000000E+00  0.000000000000E+00  0.000000000000E+00  0.000000000000E+00
  0.000000000000E+00  0.000000000000E+00  0.000000000000E+00  0.000000000000E+00
  0.000000000000E+00  0.000000000000E+00  0.000000000000E+00  0.000000000000E+00
  0.000000000000E+00  0.000000000000E+00  0.000000000000E+00  0.000000000000E+00
  0.000000000000E+00  0.000000000000E+00  0.000000000000E+00  0.000000000000E+00
  0.000000000000E+00  0.000000000000E+00  0.000000000000E+00  0.000000000000E+00
  0.000000000000E+00  0.000000000000E+00  0.000000000000E+00  0.000000000000E+00
  0.000000000000E+00
</data>
</radfunc>
</valence-charge>
<semilocal-potentials set="scalar_relativistic">
<slps n="1" l="s" rc="1.26475512779" eref="-0.579308785189">
<radfunc>
<data npts="290">
 -8.348494002559E+00 -8.348069719704E+00 -8.346801412834E+00 -8.344685594901E+00
 -8.341744206235E+00 -8.337877156616E+00 -8.332949562702E+00 -8.327308266516E+00
 -8.320966754008E+00 -8.313573520278E+00 -8.305242539449E+00 -8.296190176509E+00
 -8.285253651023E+00 -8.273835760780E+00 -8.260371874281E+00 -8.246931004449E+00
 -8.231459916784E+00 -8.216800846389E+00 -8.200327477459E+00 -8.181820552303E+00
 -8.161035529936E+00 -8.142585184698E+00 -8.122349481933E+00 -8.100161202872E+00
 -8.075838403347E+00 -8.049183262184E+00 -8.019980861229E+00 -7.996267803877E+00
 -7.970885437889E+00 -7.943721538260E+00 -7.914656957509E+00 -7.883565273334E+00
 -7.850312430435E+00 -7.814756379583E+00 -7.776746718318E+00 -7.736124339043E+00
 -7.692721092084E+00 -7.646359473425E+00 -7.613716179625E+00 -7.579617214056E+00
 -7.544002735147E+00 -7.506810917872E+00 -7.467977948744E+00 -7.427438031832E+00
 -7.385123407779E+00 -7.340964388177E+00 -7.294889407804E+00 -7.246825097682E+00
 -7.196696382165E+00 -7.144426603626E+00 -7.089937678753E+00 -7.033150290806E+00
 -6.973984122589E+00 -6.912358135410E+00 -6.848190899589E+00 -6.781400982607E+00
 -6.711907401352E+00 -6.639630145244E+00 -6.564490777460E+00 -6.486413121611E+00
 -6.405324041502E+00 -6.321154321591E+00 -6.233839655698E+00 -6.143321751207E+00
 -6.049549555502E+00 -5.952480610562E+00 -5.852082540515E+00 -5.800628119734E+00
 -5.748334675423E+00 -5.695201741858E+00 -5.641229812596E+00 -5.586420402904E+00
 -5.530776114242E+00 -5.474300700673E+00 -5.416999137164E+00 -5.358877689627E+00
 -5.299943986604E+00 -5.240207092452E+00 -5.179677581833E+00 -5.118367615355E+00
 -5.056291016100E+00 -4.993463346839E+00 -4.929901987625E+00 -4.865626213470E+00
 -4.800657271787E+00 -4.735018459191E+00 -4.668735197309E+00 -4.601835107100E+00
 -4.534348081282E+00 -4.466306354296E+00 -4.397744569302E+00 -4.328699841618E+00
 -4.259211817956E+00 -4.189322730850E+00 -4.119077447527E+00 -4.048523512524E+00
 -3.977711183277E+00 -3.906693457855E+00 -3.835526094039E+00 -3.764267618815E+00
 -3.692979327412E+00 -3.621725270905E+00 -3.550572231398E+00 -3.479589683776E+00
 -3.408849742926E+00 -3.338427095351E+00 -3.268398913980E+00 -3.198844754998E+00
 -3.129846435402E+00 -3.061487889958E+00 -2.993855006159E+00 -2.927035435678E+00
 -2.861118380749E+00 -2.796194353779E+00 -2.732354908396E+00 -2.669692339992E+00
 -2.608299353737E+00 -2.548268697824E+00 -2.489692759664E+00 -2.432663122544E+00
 -2.377270080207E+00 -2.323602106714E+00 -2.271745278921E+00 -2.221782648963E+00
 -2.173793564223E+00 -2.127852932558E+00 -2.084030430903E+00 -2.042389655937E+00
 -2.002987216297E+00 -1.965871766781E+00 -1.931082986330E+00 -1.898650503106E+00
 -1.868592771961E+00 -1.840915911809E+00 -1.815612513104E+00 -1.792660428560E+00
 -1.772021563650E+00 -1.753640687059E+00 -1.737444285208E+00 -1.723339489177E+00
 -1.711213106635E+00 -1.700930795793E+00 -1.692336422813E+00 -1.685251648411E+00
 -1.679475793331E+00 -1.674786036030E+00 -1.670937999191E+00 -1.667666784311E+00
 -1.664688515548E+00 -1.661702455121E+00 -1.658393752531E+00 -1.654436888619E+00
 -1.649499872484E+00 -1.643249244250E+00 -1.635355928915E+00 -1.625501975531E+00
 -1.613388200915E+00 -1.598742799942E+00 -1.581330070588E+00 -1.562593596308E+00
 -1.544064590483E+00 -1.525755350403E+00 -1.507663216538E+00 -1.489785617670E+00
 -1.472120009677E+00 -1.454663878618E+00 -1.437414740366E+00 -1.420370140264E+00
 -1.403527652771E+00 -1.386884881123E+00 -1.370439456988E+00 -1.354189040133E+00
 -1.338131318093E+00 -1.322264005839E+00 -1.306584845455E+00 -1.291091605822E+00
 -1.275782082291E+00 -1.260654096381E+00 -1.245705495459E+00 -1.230934152441E+00
 -1.216337965484E+00 -1.201914857690E+00 -1.187662776806E+00 -1.173579694935E+00
 -1.159663608243E+00 -1.145912536673E+00 -1.132324523661E+00 -1.118897635858E+00
 -1.105629962852E+00 -1.092519616890E+00 -1.079564732613E+00 -1.066763466782E+00
 -1.054113998019E+00 -1.041614526541E+00 -1.029263273900E+00 -1.017058482734E+00
 -1.004998416507E+00 -9.930813592616E-01 -9.813056153756E-01 -9.696695093147E-01
 -9.581713853938E-01 -9.468096075395E-01 -9.355825590559E-01 -9.244886423933E-01
 -9.135262789203E-01 -9.026939086987E-01 -8.919899902612E-01 -8.814130003926E-01
 -8.709614339137E-01 -8.606338034679E-01 -8.504286393110E-01 -8.403444891037E-01
 -8.303799177066E-01 -8.205335069784E-01 -8.108038555763E-01 -8.011895787592E-01
 -7.916893081931E-01 -7.823016917596E-01 -7.730253933657E-01 -7.638590927571E-01
 -7.548014853323E-01 -7.458512819605E-01 -7.370072087997E-01 -7.282680071188E-01
 -7.196324331200E-01 -7.110992577637E-01 -7.026672665958E-01 -6.943352595761E-01
 -6.861020509086E-01 -6.779664688739E-01 -6.699273556630E-01 -6.619835672131E-01
 -6.541339730448E-01 -6.463774561012E-01 -6.387129125888E-01 -6.311392518196E-01
 -6.236553960559E-01 -6.162602803551E-01 -6.089528524184E-01 -6.017320724391E-01
 -5.945969129540E-01 -5.875463586957E-01 -5.805794064474E-01 -5.736950648985E-01
 -5.668923545024E-01 -5.601703073359E-01 -5.535279669606E-01 -5.469643882853E-01
 -5.404786374306E-01 -5.340697915950E-01 -5.277369389227E-01 -5.214791783730E-01
 -5.152956195911E-01 -5.091853827810E-01 -5.031475985794E-01 -4.971814079317E-01
 -4.912859619689E-01 -4.854604218867E-01 -4.797039588257E-01 -4.740157537533E-01
 -4.683949973465E-01 -4.628408898769E-01 -4.573526410969E-01 -4.519294701267E-01
 -4.465706053433E-01 -4.412752842711E-01 -4.360427534727E-01 -4.308722684422E-01
 -4.257630934992E-01 -4.207145016841E-01 -4.157257746548E-01 -4.107962025847E-01
 -4.059250840615E-01 -4.011117259879E-01 -3.963554434828E-01 -3.916555597839E-01
 -3.870114061518E-01 -3.824223217750E-01 -3.778876536755E-01 -3.734067566166E-01
 -3.689789930108E-01 -3.646037328293E-01 -3.602803535128E-01 -3.560082398822E-01
 -3.517867840522E-01 -3.476153853439E-01 -3.434934502004E-01 -3.394203921014E-01
 -3.353956314809E-01 -3.314185956438E-01
</data>
</radfunc>
</slps>
<slps n="2" l="p" rc="1.13600916810" eref="0.500000043201E-01">
<radfunc>
<data npts="290">
 -6.486843050518E+00 -6.486387116481E+00 -6.485024499250E+00 -6.482752358352E+00
 -6.479595744040E+00 -6.475449441425E+00 -6.470172107060E+00 -6.464138805099E+00
 -6.457367323914E+00 -6.449487103464E+00 -6.440625803281E+00 -6.431019345175E+00
 -6.419444154452E+00 -6.407395393423E+00 -6.393234696348E+00 -6.379149029953E+00
 -6.362998567524E+00 -6.347757750956E+00 -6.330702509428E+00 -6.311632479626E+00
 -6.290329119165E+00 -6.271519563264E+00 -6.250998742011E+00 -6.228628355464E+00
 -6.204262267601E+00 -6.177746717564E+00 -6.148920688908E+00 -6.125684254519E+00
 -6.100980965706E+00 -6.074736177979E+00 -6.046873869592E+00 -6.017316966948E+00
 -5.985987721861E+00 -5.952808142517E+00 -5.917700479101E+00 -5.880587763763E+00
 -5.841394402837E+00 -5.800046817074E+00 -5.771249831847E+00 -5.741443648564E+00
 -5.710608845289E+00 -5.678726865728E+00 -5.645780115183E+00 -5.611752054407E+00
 -5.576627289693E+00 -5.540391657387E+00 -5.503032300642E+00 -5.464537736143E+00
 -5.424897908208E+00 -5.384104227469E+00 -5.342149591227E+00 -5.299028382346E+00
 -5.254736443546E+00 -5.209271024007E+00 -5.162630695258E+00 -5.114815233719E+00
 -5.065825467704E+00 -5.015663087392E+00 -4.964330417357E+00 -4.911830152469E+00
 -4.858165059767E+00 -4.803337650961E+00 -4.747349832833E+00 -4.690202545879E+00
 -4.631895405135E+00 -4.572426361219E+00 -4.511791404205E+00 -4.481034861597E+00
 -4.449984337925E+00 -4.418638696850E+00 -4.386996657493E+00 -4.355056798964E+00
 -4.322817568161E+00 -4.290277291155E+00 -4.257434188612E+00 -4.224286395610E+00
 -4.190831986284E+00 -4.157069003731E+00 -4.122995495535E+00 -4.088609555381E+00
 -4.053909371073E+00 -4.018893279381E+00 -3.983559828003E+00 -3.947907844930E+00
 -3.911936515481E+00 -3.875645467102E+00 -3.839034862079E+00 -3.802105498092E+00
 -3.764858916527E+00 -3.727297518248E+00 -3.689424686459E+00 -3.651244916086E+00
 -3.612763948898E+00 -3.573988913479E+00 -3.534928468823E+00 -3.495592950204E+00
 -3.455994515641E+00 -3.416147291054E+00 -3.376067511942E+00 -3.335773659091E+00
 -3.295286585602E+00 -3.254629632179E+00 -3.213828727418E+00 -3.172912469545E+00
 -3.131912185828E+00 -3.090861965745E+00 -3.049798663792E+00 -3.008761867779E+00
 -2.967793828461E+00 -2.926939346384E+00 -2.886245612085E+00 -2.845761996010E+00
 -2.805539785000E+00 -2.765631862724E+00 -2.726092332204E+00 -2.686976079421E+00
 -2.648338278095E+00 -2.610233836942E+00 -2.572716792125E+00 -2.535839649186E+00
 -2.499652680497E+00 -2.464203186090E+00 -2.429534727722E+00 -2.395686348071E+00
 -2.362691788970E+00 -2.330578724668E+00 -2.299368027990E+00 -2.269073089019E+00
 -2.239699207437E+00 -2.211243080789E+00 -2.183692411628E+00 -2.157025656684E+00
 -2.131211940675E+00 -2.106211156182E+00 -2.081974268943E+00 -2.058443844926E+00
 -2.035554811669E+00 -2.013235461367E+00 -1.991408697300E+00 -1.969993518248E+00
 -1.948906727728E+00 -1.928064846318E+00 -1.907386196206E+00 -1.886793117759E+00
 -1.866214268361E+00 -1.845586944733E+00 -1.824859361858E+00 -1.803992814804E+00
 -1.782963644873E+00 -1.761764929066E+00 -1.740605926382E+00 -1.719738871271E+00
 -1.699150296965E+00 -1.678840663536E+00 -1.658808504070E+00 -1.639050149219E+00
 -1.619559530026E+00 -1.600328151428E+00 -1.581344437837E+00 -1.562593596308E+00
 -1.544064590483E+00 -1.525755350403E+00 -1.507663216538E+00 -1.489785617670E+00
 -1.472120009677E+00 -1.454663878618E+00 -1.437414740366E+00 -1.420370140264E+00