<?xml version="1.0" encoding="UTF-8" ?>
<psml version="1.1" energy_unit="hartree" length_unit="bohr"
 uuid="786c85e0-be62-11e7-5178-ee7afb7dfd35"
 xmlns="http://esl.cecam.org/PSML/ns/1.1">
<provenance creator="ONCVPSP-3.3.0+psml-3.3.0-73 (scalar-relativistic)"
 date="2017-10-31">
<annotation action="semilocal-pseudopotential-generation"
 action-cont="projectors-generation" />
<input-file name="oncvpsp-input">
<![CDATA[# atsym z nc nv iexc psfile
Ne 10 1 2 4 upf
# n l f
1 0 2.0
2 0 2.0
2 1 6.0
# lmax
1
# l rc ep ncon nbas qcut
0 1.3 0.0 4 7 9.0
1 1.5 0.0 4 7 8.8
# lloc lpopt rc5 dvloc0
4 5 1.3 0.0
# l nproj debl
0 2 1.5
1 2 1.5
# icmod fcfact
0 0.05
# epsh1 epsh2 depsh
-12.0 12.0 0.02
# rlmax drl
4.0 0.01
 0
]]>
</input-file>
</provenance>
<pseudo-atom-spec atomic-label="Ne" atomic-number="10" z-pseudo="8"
 flavor="Hamann&apos;s oncvpsp" relativity="scalar" spin-dft="no"
 core-corrections="no">
<annotation pseudo-energy="-33.9174271830" />
<exchange-correlation>
<annotation oncvpsp-xc-code="4" oncvpsp-xc-type="GGA -- Perdew-Burke-Ernzerhof" />
<libxc-info number-of-functionals="2">
<functional name="Perdew, Burke &amp; Ernzerhof (GGA)" type="exchange" id="101" />
<functional name="Perdew, Burke &amp; Ernzerhof (GGA)" type="correlation"
 id="130" />
</libxc-info>
</exchange-correlation>
<valence-configuration total-valence-charge="8">
<shell n="2" l="s" occupation="2" />
<shell n="2" l="p" occupation="6" />
</valence-configuration>
</pseudo-atom-spec>
<grid npts="457">
<annotation type="sampled from oncvpsp log grid"
 recipe="r(i:1..N) = r1*exp(a*(i-1)) + r=0; resampled"
 recipe-cont="r1: scale; a: step" scale="0.500000000000E-04"
 step="0.119285708653E-01" delta="0.500000000000E-02" rmax="44.2790565342" />
<grid-data>
  0.000000000000E+00  5.056247722070E-03  1.009945802476E-02  1.515079750118E-02
  2.017287482746E-02  2.530448665413E-02  3.062567936492E-02  3.576287246250E-02
  4.077725916977E-02  4.594340263175E-02  5.115025098203E-02  5.627193755841E-02
  6.190645980780E-02  6.729759692282E-02  7.315822235107E-02  7.858618733336E-02
  8.441687948565E-02  8.960492005827E-02  9.511180403221E-02  1.009571266888E-01
  1.071616875840E-01  1.123987792098E-01  1.178918123882E-01  1.236532952216E-01
  1.296963470949E-01  1.360347285499E-01  1.426828726186E-01  1.478813415899E-01
  1.532692101656E-01  1.588533788796E-01  1.646409996776E-01  1.706394850775E-01
  1.768565176628E-01  1.833000599224E-01  1.899783644480E-01  1.968999845042E-01
  2.040737849828E-01  2.115089537568E-01  2.166156259363E-01  2.218455936089E-01
  2.272018336210E-01  2.326873946919E-01  2.383053991494E-01  2.440590447064E-01
  2.499516062818E-01  2.559864378639E-01  2.621669744197E-01  2.684967338501E-01
  2.749793189921E-01  2.816184196699E-01  2.884178147944E-01  2.953813745148E-01
  3.025130624211E-01  3.098169378002E-01  3.172971579464E-01  3.249579805279E-01
  3.328037660097E-01  3.408389801363E-01  3.490681964727E-01  3.574960990083E-01
  3.661274848228E-01  3.749672668164E-01  3.840204765064E-01  3.932922668911E-01
  4.027879153830E-01  4.125128268120E-01  4.224725365025E-01  4.275422069405E-01
  4.326727134238E-01  4.378647859849E-01  4.431191634167E-01  4.484365933777E-01
  4.538178324983E-01  4.592636464882E-01  4.647748102461E-01  4.703521079691E-01
  4.759963332647E-01  4.817082892639E-01  4.874887887350E-01  4.933386541998E-01
  4.992587180502E-01  5.052498226668E-01  5.113128205389E-01  5.174485743853E-01
  5.236579572779E-01  5.299418527653E-01  5.363011549985E-01  5.427367688584E-01
  5.492496100847E-01  5.558406054058E-01  5.625106926706E-01  5.692608209827E-01
  5.760919508345E-01  5.830050542445E-01  5.900011148954E-01  5.970811282742E-01
  6.042461018134E-01  6.114970550352E-01  6.188350196956E-01  6.262610399320E-01
  6.337761724112E-01  6.413814864801E-01  6.490780643179E-01  6.568670010897E-01
  6.647494051028E-01  6.727263979640E-01  6.807991147396E-01  6.889687041164E-01
  6.972363285658E-01  7.056031645086E-01  7.140704024827E-01  7.226392473125E-01
  7.313109182803E-01  7.400866492996E-01  7.489676890912E-01  7.579553013603E-01
  7.670507649766E-01  7.762553741564E-01  7.855704386462E-01  7.949972839100E-01
  8.045372513169E-01  8.141916983327E-01  8.239619987127E-01  8.338495426973E-01
  8.438557372096E-01  8.539820060561E-01  8.642297901288E-01  8.746005476104E-01
  8.850957541817E-01  8.957169032319E-01  9.064655060706E-01  9.173430921435E-01
  9.283512092492E-01  9.394914237602E-01  9.507653208453E-01  9.621745046955E-01
  9.737205987518E-01  9.854052459368E-01  9.972301088881E-01  1.009196870195E+00
  1.021307232637E+00  1.033562919429E+00  1.045965674462E+00  1.058517262555E+00
  1.071219469706E+00  1.084074103343E+00  1.097082992583E+00  1.110247988494E+00
  1.123570964356E+00  1.137053815928E+00  1.150698461719E+00  1.164506843260E+00
  1.178480925379E+00  1.192622696483E+00  1.206934168841E+00  1.221417378867E+00
  1.236074387414E+00  1.250907280063E+00  1.265918167423E+00  1.281109185432E+00
  1.296482495658E+00  1.312040285605E+00  1.327784769033E+00  1.343718186261E+00
  1.359842804496E+00  1.376160918150E+00  1.392674849168E+00  1.409386947358E+00
  1.426299590726E+00  1.443415185815E+00  1.460736168045E+00  1.478265002061E+00
  1.496004182086E+00  1.513956232271E+00  1.532123707058E+00  1.550509191543E+00
  1.569115301842E+00  1.587944685464E+00  1.607000021689E+00  1.626284021949E+00
  1.645799430213E+00  1.665549023375E+00  1.685535611656E+00  1.705762038996E+00
  1.726231183464E+00  1.746945957665E+00  1.767909309157E+00  1.789124220867E+00
  1.810593711518E+00  1.832320836056E+00  1.854308686088E+00  1.876560390322E+00
  1.899079115005E+00  1.921868064385E+00  1.944930481158E+00  1.968269646932E+00
  1.991888882695E+00  2.015791549288E+00  2.039981047879E+00  2.064460820454E+00
  2.089234350299E+00  2.114305162503E+00  2.139676824453E+00  2.165352946346E+00
  2.191337181702E+00  2.217633227883E+00  2.244244826617E+00  2.271175764537E+00
  2.298429873711E+00  2.326011032196E+00  2.353923164582E+00  2.382170242557E+00
  2.410756285468E+00  2.439685360893E+00  2.468961585224E+00  2.498589124247E+00
  2.528572193738E+00  2.558915060062E+00  2.589622040783E+00  2.620697505273E+00
  2.652145875336E+00  2.683971625840E+00  2.716179285350E+00  2.748773436774E+00
  2.781758718015E+00  2.815139822632E+00  2.848921500503E+00  2.883108558509E+00
  2.917705861211E+00  2.952718331546E+00  2.988150951524E+00  3.024008762943E+00
  3.060296868098E+00  3.097020430515E+00  3.134184675681E+00  3.171794891790E+00
  3.209856430491E+00  3.248374707657E+00  3.287355204149E+00  3.326803466599E+00
  3.366725108198E+00  3.407125809496E+00  3.448011319210E+00  3.489387455041E+00
  3.531260104501E+00  3.573635225755E+00  3.616518848464E+00  3.659917074646E+00
  3.703836079541E+00  3.748282112496E+00  3.793261497846E+00  3.838780635820E+00
  3.884846003450E+00  3.931464155491E+00  3.978641725357E+00  4.026385426062E+00
  4.074702051174E+00  4.123598475788E+00  4.173081657498E+00  4.223158637388E+00
  4.273836541036E+00  4.325122579529E+00  4.377024050483E+00  4.429548339089E+00
  4.482702919158E+00  4.536495354188E+00  4.590933298438E+00  4.646024498020E+00
  4.701776791996E+00  4.758198113500E+00  4.815296490862E+00  4.873080048752E+00
  4.931557009337E+00  4.990735693449E+00  5.050624521770E+00  5.111232016032E+00
  5.172566800224E+00  5.234637601827E+00  5.297453253049E+00  5.361022692085E+00
  5.425354964390E+00  5.490459223963E+00  5.556344734651E+00  5.623020871466E+00
  5.690497121924E+00  5.758783087387E+00  5.827888484436E+00  5.897823146249E+00
  5.968597024004E+00  6.040220188292E+00  6.112702830551E+00  6.186055264518E+00
  6.260287927692E+00  6.335411382825E+00  6.411436319419E+00  6.488373555252E+00
  6.566234037915E+00  6.645028846370E+00  6.724769192526E+00  6.805466422836E+00
  6.887132019910E+00  6.969777604149E+00  7.053414935399E+00  7.138055914624E+00
  7.223712585599E+00  7.310397136626E+00  7.398121902266E+00  7.486899365093E+00
  7.576742157474E+00  7.667663063364E+00  7.759675020124E+00  7.852791120366E+00
  7.947024613810E+00  8.042388909176E+00  8.138897576086E+00  8.236564346999E+00
  8.335403119163E+00  8.435427956593E+00  8.536653092072E+00  8.639092929177E+00
  8.742762044327E+00  8.847675188859E+00  8.953847291125E+00  9.061293458619E+00
  9.170028980122E+00  9.280069327884E+00  9.391430159818E+00  9.504127321736E+00
  9.618176849597E+00  9.733594971792E+00  9.850398111454E+00  9.968602888791E+00
  1.008822612346E+01  1.020928483694E+01  1.033179625498E+01  1.045577781004E+01
  1.058124714376E+01  1.070822210949E+01  1.083672077480E+01  1.096676142410E+01
  1.109836256119E+01  1.123154291192E+01  1.136632142686E+01  1.150271728399E+01
  1.164074989140E+01  1.178043889009E+01  1.192180415677E+01  1.206486580665E+01
  1.220964419633E+01  1.235615992669E+01  1.250443384581E+01  1.265448705196E+01
  1.280634089658E+01  1.296001698734E+01  1.311553719119E+01  1.327292363748E+01
  1.343219872113E+01  1.359338510579E+01  1.375650572706E+01  1.392158379578E+01
  1.408864280133E+01  1.425770651495E+01  1.442879899313E+01  1.460194458104E+01
  1.477716791602E+01  1.495449393101E+01  1.513394785818E+01  1.531555523248E+01
  1.549934189527E+01  1.568533399801E+01  1.587355800599E+01  1.606404070206E+01
  1.625680919049E+01  1.645189090077E+01  1.664931359158E+01  1.684910535468E+01
  1.705129461894E+01  1.725591015436E+01  1.746298107622E+01  1.767253684913E+01
  1.788460729132E+01  1.809922257882E+01  1.831641324976E+01  1.853621020876E+01
  1.875864473126E+01  1.898374846804E+01  1.921155344965E+01  1.944209209105E+01
  1.967539719614E+01  1.991150196250E+01  2.015043998605E+01  2.039224526588E+01
  2.063695220907E+01  2.088459563558E+01  2.113521078321E+01  2.138883331260E+01
  2.164549931236E+01  2.190524530410E+01  2.216810824775E+01  2.243412554673E+01
  2.270333505329E+01  2.297577507393E+01  2.325148437481E+01  2.353050218731E+01
  2.381286821356E+01  2.409862263212E+01  2.438780610371E+01  2.468045977695E+01
  2.497662529428E+01  2.527634479781E+01  2.557966093538E+01  2.588661686660E+01
  2.619725626900E+01  2.651162334423E+01  2.682976282436E+01  2.715171997826E+01
  2.747754061799E+01  2.780727110541E+01  2.814095835868E+01  2.847864985898E+01
  2.882039365729E+01  2.916623838117E+01  2.951623324175E+01  2.987042804065E+01
  3.022887317714E+01  3.059161965526E+01  3.095871909113E+01  3.133022372022E+01
  3.170618640486E+01  3.208666064172E+01  3.247170056942E+01  3.286136097625E+01
  3.325569730797E+01  3.365476567566E+01  3.405862286377E+01  3.446732633814E+01
  3.488093425420E+01  3.529950546525E+01  3.572309953083E+01  3.615177672520E+01
  3.658559804590E+01  3.702462522245E+01  3.746892072512E+01  3.791854777382E+01
  3.837357034711E+01  3.883405319127E+01  3.930006182957E+01  3.977166257152E+01
  4.024892252238E+01  4.073190959265E+01  4.122069250776E+01  4.171534081786E+01
  4.221592490767E+01  4.272251600656E+01  4.323518619864E+01  4.375400843303E+01
  4.427905653422E+01
</grid-data>
</grid>
<valence-charge total-charge="8" is-unscreening-charge="yes"
 rescaled-to-z-pseudo="no">
<radfunc>
<data npts="457">
  1.103612936372E+01  1.104105240086E+01  1.105576363215E+01  1.108028922237E+01
  1.111435125047E+01  1.115907383433E+01  1.121596462744E+01  1.128096154684E+01
  1.135385506930E+01  1.143860849837E+01  1.153381511534E+01  1.163690777966E+01
  1.176095883083E+01  1.188988420114E+01  1.204113935491E+01  1.219129760915E+01
  1.236309439054E+01  1.252483925644E+01  1.270539445725E+01  1.290670493823E+01
  1.313085024999E+01  1.332808470458E+01  1.354252006529E+01  1.377536954201E+01
  1.402786933922E+01  1.430126296207E+01  1.459678100775E+01  1.483365814731E+01
  1.508413100284E+01  1.534864723776E+01  1.562761303134E+01  1.592138108848E+01
  1.623023694233E+01  1.655438340975E+01  1.689392306846E+01  1.724883863976E+01
  1.761897118476E+01  1.800399605633E+01  1.826870642659E+01  1.853960421872E+01
  1.881643562959E+01  1.909889519272E+01  1.938662146793E+01  1.967919259950E+01
  1.997612177067E+01  2.027685258919E+01  2.058075444596E+01  2.088711789681E+01
  2.119515012672E+01  2.150397056524E+01  2.181260673259E+01  2.211999040700E+01
  2.242495421543E+01  2.272622876234E+01  2.302244042309E+01  2.331210994141E+01
  2.359365198206E+01  2.386537580119E+01  2.412548720717E+01  2.437209199289E+01
  2.460320102634E+01  2.481673718964E+01  2.501054435481E+01  2.518239857944E+01
  2.533002169294E+01  2.545109742579E+01  2.554329020767E+01  2.557782559636E+01
  2.560426672474E+01  2.562232627807E+01  2.563172028105E+01  2.563216901115E+01
  2.562339795334E+01  2.560513879524E+01  2.557713046063E+01  2.553912017944E+01
  2.549086459156E+01  2.543213088162E+01  2.536269794141E+01  2.528235755600E+01
  2.519091560944E+01  2.508819330514E+01  2.497402839573E+01  2.484827641666E+01
  2.471081191727E+01  2.456152968265E+01  2.440034593895E+01  2.422719953459E+01
  2.404205308916E+01  2.384489410145E+01  2.363573600767E+01  2.341461918060E+01
  2.318161186005E+01  2.293681100488E+01  2.268034305641E+01  2.241236460342E+01
  2.213306293837E+01  2.184265649502E+01  2.154139515751E+01  2.122956043148E+01
  2.090746546799E+01  2.057545493172E+01  2.023390470552E+01  1.988322142422E+01
  1.952384183138E+01  1.915623195408E+01  1.878088609155E+01  1.839832561542E+01
  1.800909758019E+01  1.761377314469E+01  1.721294580659E+01  1.680722945418E+01
  1.639725624126E+01  1.598367429324E+01  1.556714525421E+01  1.514834168728E+01
  1.472794434205E+01  1.430663930537E+01  1.388511505350E+01  1.346405942543E+01
  1.304415653907E+01  1.262608367347E+01  1.221050814152E+01  1.179808417878E+01
  1.138944987497E+01  1.098522417491E+01  1.058600397635E+01  1.019236135148E+01
  9.804840918683E+00  9.423957390156E+00  9.050193319481E+00  8.683997071785E+00
  8.325781036832E+00  7.975920103023E+00  7.634750407453E+00  7.302568374085E+00
  6.979630048770E+00  6.666150736272E+00  6.362304940827E+00  6.068226608014E+00
  5.784009661997E+00  5.509708828571E+00  5.245340730990E+00  4.990885242331E+00
  4.746287075244E+00  4.511457587415E+00  4.286276778990E+00  4.070595456585E+00
  3.864237537427E+00  3.667002466551E+00  3.478667719956E+00  3.298991366992E+00
  3.127714666163E+00  2.964564669741E+00  2.809256814187E+00  2.661497475119E+00
  2.520986467523E+00  2.387419473786E+00  2.260490384028E+00  2.139893534860E+00
  2.025325834150E+00  1.916488760488E+00  1.813090342149E+00  1.714847448564E+00
  1.621488194409E+00  1.532753192878E+00  1.448396627929E+00  1.368187131097E+00
  1.291908453642E+00  1.219359923334E+00  1.150356675555E+00  1.084729649549E+00
  1.022325342600E+00  9.630053179087E-01  9.066447043572E-01  8.531275158340E-01
  8.023403453482E-01  7.541724626642E-01  7.085158189064E-01  6.652650970857E-01
  6.243177531886E-01  5.855740482751E-01  5.489370720357E-01  5.143127582564E-01
  4.816098926390E-01  4.507401134209E-01  4.216179052321E-01  3.941605866229E-01
  3.682882916844E-01  3.439239461793E-01  3.209932385881E-01  2.994245864646E-01
  2.791490984877E-01  2.601005325793E-01  2.422152504512E-01  2.254321689274E-01
  2.096927083795E-01  1.949407385971E-01  1.811225224042E-01  1.681866573191E-01
  1.560840155434E-01  1.447676825517E-01  1.341928945418E-01  1.243169749930E-01
  1.150992705656E-01  1.065010865665E-01  9.848562218746E-02  9.101790571610E-02
  8.406472990455E-02  7.759458766894E-02  7.157760828210E-02  6.598549420923E-02
  6.079145872519E-02  5.597016444047E-02  5.149766285180E-02  4.735133502236E-02
  4.350983348578E-02  3.995302545748E-02  3.666193742705E-02  3.361870119494E-02
  3.080650140770E-02  2.820952463629E-02  2.581291003352E-02  2.360270159799E-02
  2.156580206413E-02  1.968992842995E-02  1.796356912757E-02  1.637594283428E-02
  1.491695891622E-02  1.357717949074E-02  1.234778308837E-02  1.122052989052E-02
  1.018772851489E-02  9.242204316547E-03  8.377269169457E-03  7.586692690396E-03
  6.864674864591E-03  6.205820030563E-03  5.605112180030E-03  5.057891527506E-03
  4.559832303412E-03  4.106921724059E-03  3.695440091663E-03  3.321941977699E-03
  2.983238443297E-03  2.676380250974E-03  2.398642022863E-03  2.147507301557E-03
  1.920654470855E-03  1.715943494950E-03  1.531403435940E-03  1.365220710960E-03
  1.215728051713E-03  1.081394130620E-03  9.608138193339E-04  8.526990468095E-04
  7.558702256007E-04  6.692482164511E-04  5.918468026380E-04  5.227656468511E-04
  4.611837046643E-04  4.063530698802E-04  3.575932281895E-04  3.142856966951E-04
  2.758690279041E-04  2.418341577862E-04  2.117200784493E-04  1.851098168774E-04
  1.616267020368E-04  1.409309034647E-04  1.227162252337E-04  1.067071399252E-04
  9.265604795202E-05  8.034074825340E-05  6.956210703627E-05  6.014191186748E-05
  5.192089902854E-05  4.475694263103E-05  3.852339455855E-05  3.310756485115E-05
  2.840933268067E-05  2.433987858218E-05  2.082052910764E-05  1.778170555269E-05
  1.516196887822E-05  1.290715340271E-05  1.096958228141E-05  9.307358212832E-06
  7.883723222356E-06  6.666481766685E-06  5.627481781207E-06  4.742148655230E-06
  3.989067467242E-06  3.349609143914E-06  2.807596522410E-06  2.349006595942E-06
  1.961705507277E-06  1.635213124447E-06  1.360494287296E-06  1.129774053079E-06
  9.363744943394E-07  7.745708131860E-07  6.394647331546E-07  5.268733136202E-07
  4.332315026133E-07  3.555069024284E-07  2.911253690958E-07  2.379062021699E-07
  1.940058059084E-07  1.578688173470E-07  1.281858015692E-07  1.038567101988E-07
  8.395938635764E-08  6.772247858498E-08  5.450219804926E-08  4.376241831577E-08
  3.505767548080E-08  2.801867912786E-08  2.233999177726E-08  1.776957673275E-08
  1.409995190359E-08  1.116072069936E-08  8.812280835447E-09  6.940538204763E-09
  5.452476195605E-09  4.272451274709E-09  3.339103592643E-09  2.602787068276E-09
  2.023437111118E-09  1.568806065489E-09  1.213006809736E-09  9.353138998549E-10
  7.191793751506E-10  5.514269929873E-10  4.215943643062E-10  3.213973408565E-10
  2.442951750295E-10  1.851384165960E-10  1.398851766620E-10  1.053709653689E-10
  7.912816905474E-11  5.923675986513E-11  4.420654835516E-11  3.288519799349E-11
  2.438462450721E-11  1.802255893817E-11  1.327652501983E-11  9.747709309462E-12
  7.132689279353E-12  5.201382733269E-12  3.779906517097E-12  2.737296234251E-12
  1.975252238210E-12  1.420249507563E-12  1.017487587313E-12  7.262677254156E-13
  5.164737092062E-13  3.659011500913E-13  2.582399508340E-13  1.815544481791E-13
  1.271433134154E-13  8.868747397135E-14  6.161573888234E-14  4.263434097208E-14
  2.937941338848E-14  2.016130424176E-14  1.377718858928E-14  0.000000000000E+00
  0.000000000000E+00  0.000000000000E+00  0.000000000000E+00  0.000000000000E+00
  0.000000000000E+00  0.000000000000E+00  0.000000000000E+00  0.000000000000E+00
  0.000000000000E+00  0.000000000000E+00  0.000000000000E+00  0.000000000000E+00
  0.000000000000E+00  0.000000000000E+00  0.000000000000E+00  0.000000000000E+00
  0.000000000000E+00  0.000000000000E+00  0.000000000000E+00  0.000000000000E+00
  0.000000000000E+00  0.000000000000E+00  0.000000000000E+00  0.000000000000E+00
  0.000000000000E+00  0.000000000000E+00  0.000000000000E+00  0.000000000000E+00
  0.000000000000E+00  0.000000000000E+00  0.000000000000E+00  0.000000000000E+00
  0.000000000000E+00  0.000000000000E+00  0.000000000000E+00  0.000000000000E+00
  0.000000000000E+00  0.000000000000E+00  0.000000000000E+00  0.000000000000E+00
  0.000000000000E+00  0.000000000000E+00  0.000000000000E+00  0.000000000000E+00
  0.000000000000E+00  0.000000000000E+00  0.000000000000E+00  0.000000000000E+00
  0.000000000000E+00  0.000000000000E+00  0.000000000000E+00  0.000000000000E+00
  0.000000000000E+00  0.000000000000E+00  0.000000000000E+00  0.000000000000E+00
  0.000000000000E+00  0.000000000000E+00  0.000000000000E+00  0.000000000000E+00
  0.000000000000E+00  0.000000000000E+00  0.000000000000E+00  0.000000000000E+00
  0.000000000000E+00  0.000000000000E+00  0.000000000000E+00  0.000000000000E+00
  0.000000000000E+00  0.000000000000E+00  0.000000000000E+00  0.000000000000E+00
  0.000000000000E+00  0.000000000000E+00  0.000000000000E+00  0.000000000000E+00
  0.000000000000E+00  0.000000000000E+00  0.000000000000E+00  0.000000000000E+00
  0.000000000000E+00  0.000000000000E+00  0.000000000000E+00  0.000000000000E+00
  0.000000000000E+00  0.000000000000E+00  0.000000000000E+00  0.000000000000E+00
  0.000000000000E+00
</data>
</radfunc>
</valence-charge>
<semilocal-potentials set="scalar_relativistic">
<slps n="2" l="s" rc="1.31204028561" eref="-1.33786274762">
<radfunc>
<data npts="256">
 -1.340616110521E+01 -1.341209815892E+01 -1.342896076582E+01 -1.345497787958E+01
 -1.348720822907E+01 -1.352357541207E+01 -1.356172899740E+01 -1.359638785063E+01
 -1.362637717454E+01 -1.365218205448E+01 -1.367242250073E+01 -1.368662289217E+01
 -1.369602682584E+01 -1.369948125630E+01 -1.369786460299E+01 -1.369211720136E+01
 -1.368216804459E+01 -1.367061742392E+01 -1.365611167617E+01 -1.363869771216E+01
 -1.361845198044E+01 -1.360028155021E+01 -1.358041701273E+01 -1.355891702730E+01
 -1.353584076271E+01 -1.351124642212E+01 -1.348519048740E+01 -1.346472236205E+01
 -1.344348561980E+01 -1.342150296092E+01 -1.339879749623E+01 -1.337539321447E+01
 -1.335131546921E+01 -1.332659143961E+01 -1.330125051379E+01 -1.327532453893E+01
 -1.324884787761E+01 -1.322185720424E+01 -1.320359679920E+01 -1.318513666173E+01
 -1.316648842826E+01 -1.314766348936E+01 -1.312867269223E+01 -1.310952596971E+01
 -1.309023188317E+01 -1.307079706417E+01 -1.305122553729E+01 -1.303151790447E+01
 -1.301167036921E+01 -1.299167357839E+01 -1.297151126053E+01 -1.295115864330E+01
 -1.293058064129E+01 -1.290972981859E+01 -1.288854415198E+01 -1.286694464973E+01
 -1.284483291994E+01 -1.282208882928E+01 -1.279856844699E+01 -1.277410252194E+01
 -1.274849578632E+01 -1.272152740241E+01 -1.269295285564E+01 -1.266250753081E+01
 -1.262991207846E+01 -1.259487948314E+01 -1.255712349953E+01 -1.253713725861E+01
 -1.251636785849E+01 -1.249478382798E+01 -1.247235541441E+01 -1.244905479755E+01
 -1.242485626502E+01 -1.239973634306E+01 -1.237367387838E+01 -1.234665006787E+01
 -1.231864843515E+01 -1.228965475476E+01 -1.225965692642E+01 -1.222864480398E+01
 -1.219660998483E+01 -1.216354556716E+01 -1.212944588313E+01 -1.209430621692E+01
 -1.205812251628E+01 -1.202089110658E+01 -1.198260841521E+01 -1.194327071383E+01
 -1.190287388454E+01 -1.186141321489E+01 -1.181888322543E+01 -1.177527753218E+01
 -1.173058874484E+01 -1.168480840102E+01 -1.163792693505E+01 -1.158993367975E+01
 -1.154081689840E+01 -1.149056384410E+01 -1.143916084304E+01 -1.138659339846E+01
 -1.133284631175E+01 -1.127790381752E+01 -1.122174972948E+01 -1.116436759445E+01
 -1.110574085188E+01 -1.104585299691E+01 -1.098468774491E+01 -1.092222919638E+01
 -1.085846200065E+01 -1.079337151791E+01 -1.072694397875E+01 -1.065916664088E+01
 -1.059002794306E+01 -1.051951765619E+01 -1.044762703177E+01 -1.037434894832E+01
 -1.029967805600E+01 -1.022361092028E+01 -1.014614616539E+01 -1.006728461821E+01
 -9.987029453764E+00 -9.905386343076E+00 -9.822363604626E+00 -9.737972360369E+00
 -9.652226697492E+00 -9.565143837037E+00 -9.476744310487E+00 -9.387052145370E+00
 -9.296095060851E+00 -9.203904674159E+00 -9.110516718531E+00 -9.015971273133E+00
 -8.920313005244E+00 -8.823591424672E+00 -8.725861150205E+00 -8.627182187618E+00
 -8.527620218665E+00 -8.427246900387E+00 -8.326140174184E+00 -8.224384584361E+00
 -8.122071606354E+00 -8.019299985612E+00 -7.916176089143E+00 -7.812814273089E+00
 -7.709337271299E+00 -7.605876611710E+00 -7.502573069391E+00 -7.399577167109E+00
 -7.297049736260E+00 -7.195162552565E+00 -7.094099062032E+00 -6.994055212782E+00
 -6.895240407322E+00 -6.797878587177E+00 -6.702209457176E+00 -6.608489849764E+00
 -6.516995220129E+00 -6.428021250674E+00 -6.341885528272E+00 -6.258929240304E+00
 -6.179518719944E+00 -6.104047970737E+00 -6.031105947204E+00 -5.958913604271E+00
 -5.887527315314E+00 -5.816967959382E+00 -5.747256796310E+00 -5.678414197529E+00
 -5.610458085895E+00 -5.543402171552E+00 -5.477254097328E+00 -5.412013659894E+00
 -5.347671906635E+00 -5.284203775557E+00 -5.221548197700E+00 -5.159631150785E+00
 -5.098448853765E+00 -5.037992033458E+00 -4.978252123339E+00 -4.919220621043E+00
 -4.860889125076E+00 -4.803249333623E+00 -4.746293043373E+00 -4.690012148355E+00
 -4.634398638790E+00 -4.579444599954E+00 -4.525142211050E+00 -4.471483744101E+00
 -4.418461562853E+00 -4.366068121680E+00 -4.314295964520E+00 -4.263137723804E+00
 -4.212586119411E+00 -4.162633957625E+00 -4.113274130111E+00 -4.064499612894E+00
 -4.016303465360E+00 -3.968678829261E+00 -3.921618927621E+00 -3.875117064381E+00
 -3.829166621888E+00 -3.783761062107E+00 -3.738893923933E+00 -3.694558823050E+00
 -3.650749450850E+00 -3.607459573532E+00 -3.564683031207E+00 -3.522413737013E+00
 -3.480645676244E+00 -3.439372905485E+00 -3.398589551757E+00 -3.358289811681E+00
 -3.318467950645E+00 -3.279118301982E+00 -3.240235266165E+00 -3.201813310001E+00
 -3.163846965852E+00 -3.126330830850E+00 -3.089259566131E+00 -3.052627896077E+00
 -3.016430607571E+00 -2.980662549254E+00 -2.945318630800E+00 -2.910393822199E+00
 -2.875883153042E+00 -2.841781711823E+00 -2.808084645248E+00 -2.774787157553E+00
 -2.741884509823E+00 -2.709372019332E+00 -2.677245058882E+00 -2.645499056149E+00
 -2.614129493044E+00 -2.583131905072E+00 -2.552501880708E+00 -2.522235060769E+00
 -2.492327137800E+00 -2.462773855469E+00 -2.433571007958E+00 -2.404714439371E+00
 -2.376200043142E+00 -2.348023761454E+00 -2.320181584656E+00 -2.292669550698E+00
 -2.265483744561E+00 -2.238620297700E+00 -2.212075387489E+00 -2.185845236676E+00
 -2.159926112843E+00 -2.134314327866E+00 -2.109006237394E+00 -2.083998240318E+00
 -2.059286778262E+00 -2.034868335070E+00 -2.010739436299E+00 -1.986896648727E+00
</data>
</radfunc>
</slps>
<slps n="2" l="p" rc="1.51395623227" eref="-0.490017455014">
<radfunc>
<data npts="256">
 -2.080387681290E+01 -2.080949948283E+01 -2.082542222823E+01 -2.084987111974E+01
 -2.087992066460E+01 -2.091341954264E+01 -2.094791622484E+01 -2.097838583368E+01
 -2.100366253291E+01 -2.102396870711E+01 -2.103800723585E+01 -2.104546182591E+01
 -2.104670646021E+01 -2.104163159293E+01 -2.102994318363E+01 -2.101412627041E+01
 -2.099256839562E+01 -2.097000064980E+01 -2.094309402787E+01 -2.091172333068E+01
 -2.087577193637E+01 -2.084363313491E+01 -2.080842015629E+01 -2.077005730592E+01
 -2.072845672726E+01 -2.068351581438E+01 -2.063511526300E+01 -2.059646258349E+01
 -2.055572227187E+01 -2.051282366175E+01 -2.046769022794E+01 -2.042023968219E+01
 -2.037038407349E+01 -2.031802984794E+01 -2.026307781723E+01 -2.020542298122E+01
 -2.014495414494E+01 -2.008155326551E+01 -2.003759529583E+01 -1.999223892090E+01
 -1.994544256213E+01 -1.989716228023E+01 -1.984735141596E+01 -1.979596015765E+01
 -1.974293502299E+01 -1.968821824043E+01 -1.963174701264E+01 -1.957345264288E+01
 -1.951325950283E+01 -1.945108382017E+01 -1.938683226493E+01 -1.932040031817E+01
 -1.925167041424E+01 -1.918050986200E+01 -1.910676857132E+01 -1.903027664075E+01
 -1.895084190094E+01 -1.886824755613E+01 -1.878225011921E+01 -1.869257789009E+01
 -1.859893027235E+01 -1.850097824664E+01 -1.839836630671E+01 -1.829071609762E+01
 -1.817763186694E+01 -1.805870764503E+01 -1.793353582569E+01 -1.786848154946E+01
 -1.780171655610E+01 -1.773319361706E+01 -1.766286711529E+01 -1.759069326979E+01
 -1.751663032266E+01 -1.744063868304E+01 -1.736268102339E+01 -1.728272232533E+01
 -1.720072987413E+01 -1.711667320270E+01 -1.703052398790E+01 -1.694225590391E+01
 -1.685184443867E+01 -1.675926668116E+01 -1.666450108779E+01 -1.656752723716E+01
 -1.646832558240E+01 -1.636687721022E+01 -1.626316361519E+01 -1.615716649711E+01
 -1.604886758811E+01 -1.593824851502E+01 -1.582529070132E+01 -1.570997531173E+01
 -1.559228324111E+01 -1.547219514863E+01 -1.534969153681E+01 -1.522475287469E+01
 -1.509735976343E+01 -1.496749314264E+01 -1.483513453521E+01 -1.470026632857E+01
 -1.456287209036E+01 -1.442293691655E+01 -1.428044781061E+01 -1.413539409234E+01
 -1.398776783555E+01 -1.383756433414E+01 -1.368478259638E+01 -1.352942586763E+01
 -1.337150218198E+01 -1.321102494344E+01 -1.304801353767E+01 -1.288249397506E+01
 -1.271449956609E+01 -1.254407162976E+01 -1.237126023554E+01 -1.219612497896E+01
 -1.201873579040E+01 -1.183917377606E+01 -1.165753208884E+01 -1.147391682624E+01
 -1.128844795068E+01 -1.110126022627E+01 -1.091250416415E+01 -1.072234696629E+01
 -1.053097345544E+01 -1.033858697576E+01 -1.014541024596E+01 -9.951686143043E+00
 -9.757678391152E+00 -9.563672126083E+00 -9.369974301759E+00 -9.176913900805E+00
 -8.984841907112E+00 -8.794130994344E+00 -8.605174880802E+00 -8.418387298236E+00
 -8.234200520433E+00 -8.053063396988E+00 -7.875438838985E+00 -7.701800706883E+00
 -7.532630056917E+00 -7.368410711402E+00 -7.209624130539E+00 -7.056743579095E+00
 -6.910227600585E+00 -6.770512834294E+00 -6.638006236281E+00 -6.513076793836E+00
 -6.396046852843E+00 -6.287183207970E+00 -6.186688135203E+00 -6.094690573276E+00
 -6.011237683309E+00 -5.936287032650E+00 -5.869699657849E+00 -5.811234261525E+00
 -5.760542787688E+00 -5.717167599667E+00 -5.680540454631E+00 -5.649983430431E+00
 -5.624711820218E+00 -5.603840283642E+00 -5.586394356167E+00 -5.571318912721E+00
 -5.557473761102E+00 -5.543658536399E+00 -5.528627216558E+00 -5.511105483506E+00
 -5.489810192120E+00 -5.463471164089E+00 -5.430855620307E+00 -5.390795694911E+00
 -5.342220181555E+00 -5.284183587623E+00 -5.221548197700E+00 -5.159631150785E+00
 -5.098448853765E+00 -5.037992033458E+00 -4.978252123339E+00 -4.919220621043E+00
 -4.860889125076E+00 -4.803249333623E+00 -4.746293043373E+00 -4.690012148355E+00
 -4.634398638790E+00 -4.579444599954E+00 -4.525142211050E+00 -4.471483744101E+00
 -4.418461562853E+00 -4.366068121680E+00 -4.314295964520E+00 -4.263137723804E+00
 -4.212586119411E+00 -4.162633957625E+00 -4.113274130111E+00 -4.064499612894E+00
 -4.016303465360E+00 -3.968678829261E+00 -3.921618927621E+00 -3.875117064381E+00
 -3.829166621888E+00 -3.783761062107E+00 -3.738893923933E+00 -3.694558823050E+00