<?xml version="1.0" encoding="UTF-8" ?>
<psml version="1.1" energy_unit="hartree" length_unit="bohr"
 uuid="4f13d160-be41-11e7-72ab-8fe2ca475a01"
 xmlns="http://esl.cecam.org/PSML/ns/1.1">
<provenance creator="ONCVPSP-3.3.0+psml-3.3.0-73 (scalar-relativistic)"
 date="2017-10-31">
<annotation action="semilocal-pseudopotential-generation"
 action-cont="projectors-generation" />
<input-file name="oncvpsp-input">
<![CDATA[# atsym z nc nv iexc psfile
Ne 10 1 2 4 upf
# n l f
1 0 2.0
2 0 2.0
2 1 6.0
# lmax
1
# l rc ep ncon nbas qcut
0 1.3 0.0 4 7 8.0
1 1.7 0.0 4 7 8.0
# lloc lpopt rc5 dvloc0
4 5 1.3 0.0
# l nproj debl
0 2 1.5
1 2 1.5
# icmod fcfact rcfact
0 0.05 0.0
# epsh1 epsh2 depsh
-12.0 12.0 0.02
# rlmax drl
4.0 0.01
 0
]]>
</input-file>
</provenance>
<pseudo-atom-spec atomic-label="Ne" atomic-number="10" z-pseudo="8"
 flavor="Hamann&apos;s oncvpsp" relativity="scalar" spin-dft="no"
 core-corrections="no">
<annotation pseudo-energy="-33.3566625981" />
<exchange-correlation>
<annotation oncvpsp-xc-code="4" oncvpsp-xc-type="GGA -- Perdew-Burke-Ernzerhof" />
<libxc-info number-of-functionals="2">
<functional name="Perdew, Burke &amp; Ernzerhof (GGA)" type="exchange" id="101" />
<functional name="Perdew, Burke &amp; Ernzerhof (GGA)" type="correlation"
 id="130" />
</libxc-info>
</exchange-correlation>
<valence-configuration total-valence-charge="8">
<shell n="2" l="s" occupation="2" />
<shell n="2" l="p" occupation="6" />
</valence-configuration>
</pseudo-atom-spec>
<grid npts="457">
<annotation type="sampled from oncvpsp log grid"
 recipe="r(i:1..N) = r1*exp(a*(i-1)) + r=0; resampled"
 recipe-cont="r1: scale; a: step" scale="0.500000000000E-04"
 step="0.119285708653E-01" delta="0.500000000000E-02" rmax="44.2790565342" />
<grid-data>
  0.000000000000E+00  5.056247722070E-03  1.009945802476E-02  1.515079750118E-02
  2.017287482746E-02  2.530448665413E-02  3.062567936492E-02  3.576287246250E-02
  4.077725916977E-02  4.594340263175E-02  5.115025098203E-02  5.627193755841E-02
  6.190645980780E-02  6.729759692282E-02  7.315822235107E-02  7.858618733336E-02
  8.441687948565E-02  8.960492005827E-02  9.511180403221E-02  1.009571266888E-01
  1.071616875840E-01  1.123987792098E-01  1.178918123882E-01  1.236532952216E-01
  1.296963470949E-01  1.360347285499E-01  1.426828726186E-01  1.478813415899E-01
  1.532692101656E-01  1.588533788796E-01  1.646409996776E-01  1.706394850775E-01
  1.768565176628E-01  1.833000599224E-01  1.899783644480E-01  1.968999845042E-01
  2.040737849828E-01  2.115089537568E-01  2.166156259363E-01  2.218455936089E-01
  2.272018336210E-01  2.326873946919E-01  2.383053991494E-01  2.440590447064E-01
  2.499516062818E-01  2.559864378639E-01  2.621669744197E-01  2.684967338501E-01
  2.749793189921E-01  2.816184196699E-01  2.884178147944E-01  2.953813745148E-01
  3.025130624211E-01  3.098169378002E-01  3.172971579464E-01  3.249579805279E-01
  3.328037660097E-01  3.408389801363E-01  3.490681964727E-01  3.574960990083E-01
  3.661274848228E-01  3.749672668164E-01  3.840204765064E-01  3.932922668911E-01
  4.027879153830E-01  4.125128268120E-01  4.224725365025E-01  4.275422069405E-01
  4.326727134238E-01  4.378647859849E-01  4.431191634167E-01  4.484365933777E-01
  4.538178324983E-01  4.592636464882E-01  4.647748102461E-01  4.703521079691E-01
  4.759963332647E-01  4.817082892639E-01  4.874887887350E-01  4.933386541998E-01
  4.992587180502E-01  5.052498226668E-01  5.113128205389E-01  5.174485743853E-01
  5.236579572779E-01  5.299418527653E-01  5.363011549985E-01  5.427367688584E-01
  5.492496100847E-01  5.558406054058E-01  5.625106926706E-01  5.692608209827E-01
  5.760919508345E-01  5.830050542445E-01  5.900011148954E-01  5.970811282742E-01
  6.042461018134E-01  6.114970550352E-01  6.188350196956E-01  6.262610399320E-01
  6.337761724112E-01  6.413814864801E-01  6.490780643179E-01  6.568670010897E-01
  6.647494051028E-01  6.727263979640E-01  6.807991147396E-01  6.889687041164E-01
  6.972363285658E-01  7.056031645086E-01  7.140704024827E-01  7.226392473125E-01
  7.313109182803E-01  7.400866492996E-01  7.489676890912E-01  7.579553013603E-01
  7.670507649766E-01  7.762553741564E-01  7.855704386462E-01  7.949972839100E-01
  8.045372513169E-01  8.141916983327E-01  8.239619987127E-01  8.338495426973E-01
  8.438557372096E-01  8.539820060561E-01  8.642297901288E-01  8.746005476104E-01
  8.850957541817E-01  8.957169032319E-01  9.064655060706E-01  9.173430921435E-01
  9.283512092492E-01  9.394914237602E-01  9.507653208453E-01  9.621745046955E-01
  9.737205987518E-01  9.854052459368E-01  9.972301088881E-01  1.009196870195E+00
  1.021307232637E+00  1.033562919429E+00  1.045965674462E+00  1.058517262555E+00
  1.071219469706E+00  1.084074103343E+00  1.097082992583E+00  1.110247988494E+00
  1.123570964356E+00  1.137053815928E+00  1.150698461719E+00  1.164506843260E+00
  1.178480925379E+00  1.192622696483E+00  1.206934168841E+00  1.221417378867E+00
  1.236074387414E+00  1.250907280063E+00  1.265918167423E+00  1.281109185432E+00
  1.296482495658E+00  1.312040285605E+00  1.327784769033E+00  1.343718186261E+00
  1.359842804496E+00  1.376160918150E+00  1.392674849168E+00  1.409386947358E+00
  1.426299590726E+00  1.443415185815E+00  1.460736168045E+00  1.478265002061E+00
  1.496004182086E+00  1.513956232271E+00  1.532123707058E+00  1.550509191543E+00
  1.569115301842E+00  1.587944685464E+00  1.607000021689E+00  1.626284021949E+00
  1.645799430213E+00  1.665549023375E+00  1.685535611656E+00  1.705762038996E+00
  1.726231183464E+00  1.746945957665E+00  1.767909309157E+00  1.789124220867E+00
  1.810593711518E+00  1.832320836056E+00  1.854308686088E+00  1.876560390322E+00
  1.899079115005E+00  1.921868064385E+00  1.944930481158E+00  1.968269646932E+00
  1.991888882695E+00  2.015791549288E+00  2.039981047879E+00  2.064460820454E+00
  2.089234350299E+00  2.114305162503E+00  2.139676824453E+00  2.165352946346E+00
  2.191337181702E+00  2.217633227883E+00  2.244244826617E+00  2.271175764537E+00
  2.298429873711E+00  2.326011032196E+00  2.353923164582E+00  2.382170242557E+00
  2.410756285468E+00  2.439685360893E+00  2.468961585224E+00  2.498589124247E+00
  2.528572193738E+00  2.558915060062E+00  2.589622040783E+00  2.620697505273E+00
  2.652145875336E+00  2.683971625840E+00  2.716179285350E+00  2.748773436774E+00
  2.781758718015E+00  2.815139822632E+00  2.848921500503E+00  2.883108558509E+00
  2.917705861211E+00  2.952718331546E+00  2.988150951524E+00  3.024008762943E+00
  3.060296868098E+00  3.097020430515E+00  3.134184675681E+00  3.171794891790E+00
  3.209856430491E+00  3.248374707657E+00  3.287355204149E+00  3.326803466599E+00
  3.366725108198E+00  3.407125809496E+00  3.448011319210E+00  3.489387455041E+00
  3.531260104501E+00  3.573635225755E+00  3.616518848464E+00  3.659917074646E+00
  3.703836079541E+00  3.748282112496E+00  3.793261497846E+00  3.838780635820E+00
  3.884846003450E+00  3.931464155491E+00  3.978641725357E+00  4.026385426062E+00
  4.074702051174E+00  4.123598475788E+00  4.173081657498E+00  4.223158637388E+00
  4.273836541036E+00  4.325122579529E+00  4.377024050483E+00  4.429548339089E+00
  4.482702919158E+00  4.536495354188E+00  4.590933298438E+00  4.646024498020E+00
  4.701776791996E+00  4.758198113500E+00  4.815296490862E+00  4.873080048752E+00
  4.931557009337E+00  4.990735693449E+00  5.050624521770E+00  5.111232016032E+00
  5.172566800224E+00  5.234637601827E+00  5.297453253049E+00  5.361022692085E+00
  5.425354964390E+00  5.490459223963E+00  5.556344734651E+00  5.623020871466E+00
  5.690497121924E+00  5.758783087387E+00  5.827888484436E+00  5.897823146249E+00
  5.968597024004E+00  6.040220188292E+00  6.112702830551E+00  6.186055264518E+00
  6.260287927692E+00  6.335411382825E+00  6.411436319419E+00  6.488373555252E+00
  6.566234037915E+00  6.645028846370E+00  6.724769192526E+00  6.805466422836E+00
  6.887132019910E+00  6.969777604149E+00  7.053414935399E+00  7.138055914624E+00
  7.223712585599E+00  7.310397136626E+00  7.398121902266E+00  7.486899365093E+00
  7.576742157474E+00  7.667663063364E+00  7.759675020124E+00  7.852791120366E+00
  7.947024613810E+00  8.042388909176E+00  8.138897576086E+00  8.236564346999E+00
  8.335403119163E+00  8.435427956593E+00  8.536653092072E+00  8.639092929177E+00
  8.742762044327E+00  8.847675188859E+00  8.953847291125E+00  9.061293458619E+00
  9.170028980122E+00  9.280069327884E+00  9.391430159818E+00  9.504127321736E+00
  9.618176849597E+00  9.733594971792E+00  9.850398111454E+00  9.968602888791E+00
  1.008822612346E+01  1.020928483694E+01  1.033179625498E+01  1.045577781004E+01
  1.058124714376E+01  1.070822210949E+01  1.083672077480E+01  1.096676142410E+01
  1.109836256119E+01  1.123154291192E+01  1.136632142686E+01  1.150271728399E+01
  1.164074989140E+01  1.178043889009E+01  1.192180415677E+01  1.206486580665E+01
  1.220964419633E+01  1.235615992669E+01  1.250443384581E+01  1.265448705196E+01
  1.280634089658E+01  1.296001698734E+01  1.311553719119E+01  1.327292363748E+01
  1.343219872113E+01  1.359338510579E+01  1.375650572706E+01  1.392158379578E+01
  1.408864280133E+01  1.425770651495E+01  1.442879899313E+01  1.460194458104E+01
  1.477716791602E+01  1.495449393101E+01  1.513394785818E+01  1.531555523248E+01
  1.549934189527E+01  1.568533399801E+01  1.587355800599E+01  1.606404070206E+01
  1.625680919049E+01  1.645189090077E+01  1.664931359158E+01  1.684910535468E+01
  1.705129461894E+01  1.725591015436E+01  1.746298107622E+01  1.767253684913E+01
  1.788460729132E+01  1.809922257882E+01  1.831641324976E+01  1.853621020876E+01
  1.875864473126E+01  1.898374846804E+01  1.921155344965E+01  1.944209209105E+01
  1.967539719614E+01  1.991150196250E+01  2.015043998605E+01  2.039224526588E+01
  2.063695220907E+01  2.088459563558E+01  2.113521078321E+01  2.138883331260E+01
  2.164549931236E+01  2.190524530410E+01  2.216810824775E+01  2.243412554673E+01
  2.270333505329E+01  2.297577507393E+01  2.325148437481E+01  2.353050218731E+01
  2.381286821356E+01  2.409862263212E+01  2.438780610371E+01  2.468045977695E+01
  2.497662529428E+01  2.527634479781E+01  2.557966093538E+01  2.588661686660E+01
  2.619725626900E+01  2.651162334423E+01  2.682976282436E+01  2.715171997826E+01
  2.747754061799E+01  2.780727110541E+01  2.814095835868E+01  2.847864985898E+01
  2.882039365729E+01  2.916623838117E+01  2.951623324175E+01  2.987042804065E+01
  3.022887317714E+01  3.059161965526E+01  3.095871909113E+01  3.133022372022E+01
  3.170618640486E+01  3.208666064172E+01  3.247170056942E+01  3.286136097625E+01
  3.325569730797E+01  3.365476567566E+01  3.405862286377E+01  3.446732633814E+01
  3.488093425420E+01  3.529950546525E+01  3.572309953083E+01  3.615177672520E+01
  3.658559804590E+01  3.702462522245E+01  3.746892072512E+01  3.791854777382E+01
  3.837357034711E+01  3.883405319127E+01  3.930006182957E+01  3.977166257152E+01
  4.024892252238E+01  4.073190959265E+01  4.122069250776E+01  4.171534081786E+01
  4.221592490767E+01  4.272251600656E+01  4.323518619864E+01  4.375400843303E+01
  4.427905653422E+01
</grid-data>
</grid>
<valence-charge total-charge="8" is-unscreening-charge="yes"
 rescaled-to-z-pseudo="no">
<radfunc>
<data npts="457">
  1.144930606989E+01  1.145261587839E+01  1.146250699796E+01  1.147899889980E+01
  1.150190778309E+01  1.153199424007E+01  1.157027930894E+01  1.161403683410E+01
  1.166313270637E+01  1.172024618844E+01  1.178444207828E+01  1.185400132171E+01
  1.193776558962E+01  1.202489581119E+01  1.212721491988E+01  1.222889787640E+01
  1.234536487397E+01  1.245514684173E+01  1.257784655029E+01  1.271484098568E+01
  1.286761475164E+01  1.300225944121E+01  1.314887701367E+01  1.330836226098E+01
  1.348163992031E+01  1.366965649665E+01  1.387336934561E+01  1.403702916436E+01
  1.421045072743E+01  1.439401765745E+01  1.458809551869E+01  1.479302464524E+01
  1.500911182993E+01  1.523662075728E+01  1.547576106162E+01  1.572667589304E+01
  1.598942787939E+01  1.626398338240E+01  1.645351034020E+01  1.664814479641E+01
  1.684778200252E+01  1.705228525563E+01  1.726148281432E+01  1.747516465847E+01
  1.769307910181E+01  1.791492926884E+01  1.814036945248E+01  1.836900137306E+01
  1.860037036442E+01  1.883396151917E+01  1.906919583105E+01  1.930542638023E+01
  1.954193461472E+01  1.977792678988E+01  2.001253063724E+01  2.024479234334E+01
  2.047367392986E+01  2.069805113650E+01  2.091671191907E+01  2.112835568561E+01
  2.133159340394E+01  2.152494872315E+01  2.170686026041E+01  2.187568521087E+01
  2.202970444311E+01  2.216712924424E+01  2.228610987679E+01  2.233809144774E+01
  2.238474610306E+01  2.242583049510E+01  2.246109982098E+01  2.249030834153E+01
  2.251320993759E+01  2.252955870393E+01  2.253910958127E+01  2.254161902644E+01
  2.253684572062E+01  2.252455131540E+01  2.250450121610E+01  2.247646540149E+01
  2.244021927898E+01  2.239554457377E+01  2.234223025031E+01  2.228007346399E+01
  2.220888054075E+01  2.212846798175E+01  2.203866348984E+01  2.193930701454E+01
  2.183025181109E+01  2.171136550960E+01  2.158253118905E+01  2.144364845099E+01
  2.129463448724E+01  2.113542513524E+01  2.096597591453E+01  2.078626303734E+01
  2.059628438578E+01  2.039606044793E+01  2.018563520466E+01  1.996507695874E+01
  1.973447909768E+01  1.949396078128E+01  1.924366754513E+01  1.898377181083E+01
  1.871447329404E+01  1.843599930139E+01  1.814860490761E+01  1.785257300442E+01
  1.754821421327E+01  1.723586665442E+01  1.691589556556E+01  1.658869276390E+01
  1.625467594672E+01  1.591428782600E+01  1.556799509447E+01  1.521628722103E+01
  1.485967507556E+01  1.449868938403E+01  1.413387901684E+01  1.376580911495E+01
  1.339505905982E+01  1.302222029553E+01  1.264789401287E+01  1.227268870734E+01
  1.189721762470E+01  1.152209610975E+01  1.114793887563E+01  1.077535721265E+01
  1.040495615722E+01  1.003733164282E+01  9.673067656199E+00  9.312733422751E+00
  8.956880645949E+00  8.606040825943E+00  8.260722682579E+00  7.921409707816E+00
  7.588557871913E+00  7.262593506772E+00  6.943911388445E+00  6.632873039129E+00
  6.329805266824E+00  6.034998958474E+00  5.748708139586E+00  5.471149310384E+00
  5.202501065226E+00  4.942903998640E+00  4.692460897745E+00  4.451237217217E+00
  4.219261829395E+00  3.996528038571E+00  3.782994845224E+00  3.578588442805E+00
  3.383203926930E+00  3.196707194386E+00  3.018937007379E+00  2.849707196940E+00
  2.688808978388E+00  2.536013351273E+00  2.391073556285E+00  2.253727562179E+00
  2.123700556827E+00  2.000707418023E+00  1.884455284532E+00  1.774646628538E+00
  1.670982563223E+00  1.573164822783E+00  1.480897621689E+00  1.393889377056E+00
  1.311854291846E+00  1.234513795552E+00  1.161597840670E+00  1.092846054504E+00
  1.028008746658E+00  9.668477729113E-01  9.091372562210E-01  8.546641652267E-01
  8.032287501256E-01  7.546448351295E-01  7.087399661189E-01  6.653554116806E-01
  6.243460156300E-01  5.855798994864E-01  5.489380143356E-01  5.143135431304E-01
  4.816106165490E-01  4.507408149742E-01  4.216185843005E-01  3.941612431552E-01
  3.682889257008E-01  3.439245577655E-01  3.209938278898E-01  2.994251536822E-01
  2.791496438716E-01  2.601010564248E-01  2.422157530939E-01  2.254326507393E-01
  2.096931697644E-01  1.949411799870E-01  1.811229442556E-01  1.681870601094E-01
  1.560843997678E-01  1.447680487202E-01  1.341932431762E-01  1.243173066241E-01
  1.150995857312E-01  1.065013858086E-01  9.848590605054E-02  9.101817474488E-02
  8.406498464231E-02  7.759482865589E-02  7.157783605386E-02  6.598570929548E-02
  6.079166164846E-02  5.597035571503E-02  5.149784298270E-02  4.735150450458E-02
  4.350999280345E-02  3.995317508327E-02  3.666207782159E-02  3.361883280636E-02
  3.080662467124E-02  2.820963997402E-02  2.581301785406E-02  2.360280229640E-02
  2.156589602175E-02  1.969001601440E-02  1.796365069270E-02  1.637601872026E-02
  1.491702944961E-02  1.357724498463E-02  1.234784384253E-02  1.122058619162E-02
  1.018778063671E-02  9.242252520212E-03  8.377313703745E-03  7.586733792003E-03
  6.864712758438E-03  6.205854930124E-03  5.605144287661E-03  5.057921034784E-03
  4.559859391487E-03  4.106946564010E-03  3.695462844851E-03  3.321962796137E-03
  2.983257470003E-03  2.676397620340E-03  2.398657861011E-03  2.147521726699E-03
  1.920667593645E-03  1.715955418834E-03  1.531414257499E-03  1.365230520248E-03
  1.215736932588E-03  1.081402161064E-03  9.608210717671E-04  8.527055883987E-04
  7.558761185536E-04  6.692535183038E-04  5.918515665321E-04  5.227699218008E-04
  4.611875358136E-04  4.063564987496E-04  3.575962929122E-04  3.142884322432E-04
  2.758714663039E-04  2.418363283238E-04  2.117220078654E-04  1.851115295526E-04
  1.616282201664E-04  1.409322472244E-04  1.227174129355E-04  1.067081881641E-04
  9.265697174389E-05  8.034156116425E-05  6.956282130299E-05  6.014253851068E-05
  5.192144795771E-05  4.475742274228E-05  3.852381382540E-05  3.310793040857E-05
  2.840965090278E-05  2.434015515404E-05  2.082076909122E-05  1.778191344766E-05
  1.516214867760E-05  1.290730864389E-05  1.096971609273E-05  9.307473356074E-06
  7.883822131444E-06  6.666566582802E-06  5.627554384650E-06  4.742210694224E-06
  3.989120383967E-06  3.349654197946E-06  2.807634811811E-06  2.349039076185E-06
  1.961733008197E-06  1.635236365390E-06  1.360513890634E-06  1.129790556240E-06
  9.363883604928E-07  7.745824407143E-07  6.394744640322E-07  5.268814408085E-07
  4.332382765748E-07  3.555125368512E-07  2.911300459146E-07  2.379100759592E-07
  1.940090077187E-07  1.578714580465E-07  1.281879747490E-07  1.038584946923E-07
  8.396084842073E-08  6.772367377828E-08  5.450317285923E-08  4.376321154791E-08
  3.505831945396E-08  2.801920069568E-08  2.234041319970E-08  1.776991641786E-08
  1.410022503734E-08  1.116093977902E-08  8.812456120266E-09  6.940678095740E-09
  5.452587554707E-09  4.272539692513E-09  3.339173612141E-09  2.602842371537E-09
  2.023480674556E-09  1.568840288674E-09  1.213033621958E-09  9.353348480554E-10
  7.191956962641E-10  5.514396733011E-10  4.216041880247E-10  3.214049297210E-10
  2.443010205481E-10  1.851429061826E-10  1.398886147850E-10  1.053735905681E-10
  7.913016768992E-11  5.923827708258E-11  4.420769682976E-11  3.288606491352E-11
  2.438527712536E-11  1.802304896337E-11  1.327689208069E-11  9.747983676739E-12
  7.132893998875E-12  5.201535291375E-12  3.780020136692E-12  2.737380879933E-12
  1.975315393089E-12  1.420296771512E-12  1.017523136078E-12  7.262946616687E-13
  5.164943300159E-13  3.659171499442E-13  2.582525751752E-13  1.815646090906E-13
  1.271516764368E-13  8.869452301035E-14  6.162182456265E-14  4.263971644537E-14
  2.938426102446E-14  2.016575052425E-14  1.378133613202E-14  9.378285733831E-15
  6.354602291979E-15  4.287097148334E-15  2.879553885513E-15  1.925531045961E-15
  1.281785310609E-15  8.493661310932E-16  5.602271496286E-16  3.677872627768E-16
  2.403059636986E-16  0.000000000000E+00  0.000000000000E+00  0.000000000000E+00
  0.000000000000E+00  0.000000000000E+00  0.000000000000E+00  0.000000000000E+00
  0.000000000000E+00  0.000000000000E+00  0.000000000000E+00  0.000000000000E+00
  0.000000000000E+00  0.000000000000E+00  0.000000000000E+00  0.000000000000E+00
  0.000000000000E+00  0.000000000000E+00  0.000000000000E+00  0.000000000000E+00
  0.000000000000E+00  0.000000000000E+00  0.000000000000E+00  0.000000000000E+00
  0.000000000000E+00  0.000000000000E+00  0.000000000000E+00  0.000000000000E+00
  0.000000000000E+00  0.000000000000E+00  0.000000000000E+00  0.000000000000E+00
  0.000000000000E+00  0.000000000000E+00  0.000000000000E+00  0.000000000000E+00
  0.000000000000E+00  0.000000000000E+00  0.000000000000E+00  0.000000000000E+00
  0.000000000000E+00  0.000000000000E+00  0.000000000000E+00  0.000000000000E+00
  0.000000000000E+00  0.000000000000E+00  0.000000000000E+00  0.000000000000E+00
  0.000000000000E+00  0.000000000000E+00  0.000000000000E+00  0.000000000000E+00
  0.000000000000E+00  0.000000000000E+00  0.000000000000E+00  0.000000000000E+00
  0.000000000000E+00  0.000000000000E+00  0.000000000000E+00  0.000000000000E+00
  0.000000000000E+00  0.000000000000E+00  0.000000000000E+00  0.000000000000E+00
  0.000000000000E+00  0.000000000000E+00  0.000000000000E+00  0.000000000000E+00
  0.000000000000E+00  0.000000000000E+00  0.000000000000E+00  0.000000000000E+00
  0.000000000000E+00  0.000000000000E+00  0.000000000000E+00  0.000000000000E+00
  0.000000000000E+00  0.000000000000E+00  0.000000000000E+00  0.000000000000E+00
  0.000000000000E+00
</data>
</radfunc>
</valence-charge>
<semilocal-potentials set="scalar_relativistic">
<slps n="2" l="s" rc="1.31204028561" eref="-1.33786274762">
<radfunc>
<data npts="256">
 -1.340829620804E+01 -1.340974989453E+01 -1.341399752277E+01 -1.342078095500E+01
 -1.342961574063E+01 -1.344025321484E+01 -1.345234767023E+01 -1.346440620413E+01
 -1.347596786391E+01 -1.348715085885E+01 -1.349723848639E+01 -1.350567375404E+01
 -1.351298301950E+01 -1.351788938306E+01 -1.352083967632E+01 -1.352137739779E+01
 -1.351969268581E+01 -1.351633626921E+01 -1.351100054958E+01 -1.350351165764E+01
 -1.349371636260E+01 -1.348413112546E+01 -1.347293005435E+01 -1.346006675030E+01
 -1.344550365327E+01 -1.342921110178E+01 -1.341116614682E+01 -1.339647167906E+01
 -1.338077562750E+01 -1.336407302493E+01 -1.334635950301E+01 -1.332763098625E+01
 -1.330788340237E+01 -1.328711240391E+01 -1.326531309010E+01 -1.324247971139E+01
 -1.321860533180E+01 -1.319368141620E+01 -1.317647723839E+01 -1.315879809682E+01
 -1.314063950141E+01 -1.312199615488E+01 -1.310286178543E+01 -1.308322894576E+01
 -1.306308877244E+01 -1.304243069959E+01 -1.302124211946E+01 -1.299950798268E+01
 -1.297721032965E+01 -1.295432774519E+01 -1.293083472792E+01 -1.290670096723E+01
 -1.288189052209E+01 -1.285636089909E+01 -1.283006203173E+01 -1.280293516984E+01
 -1.277491169764E+01 -1.274591191105E+01 -1.271584380075E+01 -1.268460190537E+01
 -1.265206631956E+01 -1.261810196204E+01 -1.258255822624E+01 -1.254526914776E+01
 -1.250605422307E+01 -1.246471999810E+01 -1.242106250897E+01 -1.239829672644E+01
 -1.237487059720E+01 -1.235075728044E+01 -1.232593003978E+01 -1.230036240463E+01
 -1.227402833532E+01 -1.224690238905E+01 -1.221895988328E+01 -1.219017705322E+01
 -1.216053119994E+01 -1.213000082547E+01 -1.209856575184E+01 -1.206620722088E+01
 -1.203290797236E+01 -1.199865229835E+01 -1.196342607254E+01 -1.192721675377E+01
 -1.189001336377E+01 -1.185180644015E+01 -1.181258796595E+01 -1.177235127805E+01
 -1.173109095729E+01 -1.168880270340E+01 -1.164548319849E+01 -1.160112996266E+01
 -1.155574120573E+01 -1.150931567866E+01 -1.146185252811E+01 -1.141335115745E+01
 -1.136381109666E+01 -1.131323188351E+01 -1.126161295762E+01 -1.120895356855E+01
 -1.115525269842E+01 -1.110050899935E+01 -1.104472074518E+01 -1.098788579686E+01
 -1.093000158040E+01 -1.087106507625E+01 -1.081107281850E+01 -1.075002090262E+01
 -1.068790500014E+01 -1.062472037887E+01 -1.056046192749E+01 -1.049512418327E+01
 -1.042870136227E+01 -1.036118739121E+01 -1.029257594095E+01 -1.022286046153E+01
 -1.015203421929E+01 -1.008009033675E+01 -1.000702183665E+01 -9.932821691613E+00
 -9.857482881605E+00 -9.780998461668E+00 -9.703361642901E+00 -9.624565890125E+00
 -9.544605040158E+00 -9.463473445107E+00 -9.381166145546E+00 -9.297679078937E+00
 -9.213009329091E+00 -9.127155422888E+00 -9.040117680829E+00 -8.951898628265E+00
 -8.862503474331E+00 -8.771940665642E+00 -8.680222521604E+00 -8.587365957839E+00
 -8.493393303469E+00 -8.398333216973E+00 -8.302221703808E+00 -8.205103237048E+00
 -8.107031979744E+00 -8.008073104615E+00 -7.908304202955E+00 -7.807816770311E+00
 -7.706717751542E+00 -7.605131122447E+00 -7.503199479310E+00 -7.401085601629E+00
 -7.298973947206E+00 -7.197072032939E+00 -7.095611649344E+00 -6.994849852464E+00
 -6.895069673727E+00 -6.796580486932E+00 -6.699717972287E+00 -6.604843620781E+00
 -6.512343728430E+00 -6.422627839672E+00 -6.336126612479E+00 -6.253289094961E+00
 -6.174579339090E+00 -6.100473473614E+00 -6.029179941411E+00 -5.958482505018E+00
 -5.888420095813E+00 -5.818996035205E+00 -5.750215026491E+00 -5.682083293812E+00
 -5.614608719198E+00 -5.547800985271E+00 -5.481671685038E+00 -5.416234350552E+00
 -5.351504342705E+00 -5.287498539151E+00 -5.224234758712E+00 -5.161730871436E+00
 -5.100003566329E+00 -5.039066785391E+00 -4.978929883297E+00 -4.919595634331E+00
 -4.861058276062E+00 -4.803301842506E+00 -4.746299084100E+00 -4.690011191461E+00
 -4.634398085470E+00 -4.579444108282E+00 -4.525141728008E+00 -4.471483274405E+00
 -4.418461106442E+00 -4.366067678500E+00 -4.314295534521E+00 -4.263137306937E+00
 -4.212585715628E+00 -4.162633566874E+00 -4.113273752333E+00 -4.064499248023E+00
 -4.016303113315E+00 -3.968678489951E+00 -3.921618600933E+00 -3.875116750185E+00
 -3.829166320031E+00 -3.783760772412E+00 -3.738893646196E+00 -3.694558557040E+00
 -3.650749196305E+00 -3.607459330161E+00 -3.564682798688E+00 -3.522413514993E+00
 -3.480645464340E+00 -3.439372703282E+00 -3.398589358813E+00 -3.358289627528E+00
 -3.318467774788E+00 -3.279118133904E+00 -3.240235105328E+00 -3.201813155854E+00
 -3.163846817828E+00 -3.126330688373E+00 -3.089259428622E+00 -3.052627762954E+00
 -3.016430478256E+00 -2.980662423177E+00 -2.945318507404E+00 -2.910393700942E+00
 -2.875883033402E+00 -2.841781593303E+00 -2.808084527379E+00 -2.774787039896E+00
 -2.741884391974E+00 -2.709371900923E+00 -2.677244939583E+00 -2.645498935670E+00
 -2.614129371136E+00 -2.583131781528E+00 -2.552501755361E+00 -2.522234933493E+00
 -2.492327008511E+00 -2.462773724119E+00 -2.433570874539E+00 -2.404714303907E+00
 -2.376199905693E+00 -2.348023622107E+00 -2.320181443527E+00 -2.292669407927E+00
 -2.265483600310E+00 -2.238620152148E+00 -2.212075240831E+00 -2.185845089121E+00
 -2.159925964606E+00 -2.134314179172E+00 -2.109006088469E+00 -2.083998091393E+00
 -2.059286629566E+00 -2.034868186828E+00 -2.010739288734E+00 -1.986896502054E+00
</data>
</radfunc>
</slps>
<slps n="2" l="p" rc="1.70576203900" eref="-0.490017455014">
<radfunc>
<data npts="256">
 -1.870399912282E+01 -1.870528222454E+01 -1.870901989671E+01 -1.871495247723E+01
 -1.872260414172E+01 -1.873168567778E+01 -1.874179668041E+01 -1.875158339470E+01
 -1.876058987416E+01 -1.876879209951E+01 -1.877551855795E+01 -1.878029885473E+01
 -1.878318862410E+01 -1.878347662522E+01 -1.878097537652E+01 -1.877606493487E+01
 -1.876810192376E+01 -1.875878976579E+01 -1.874675327175E+01 -1.873172666733E+01
 -1.871345380962E+01 -1.869633289082E+01 -1.867685603496E+01 -1.865490563357E+01
 -1.863036635079E+01 -1.860312362965E+01 -1.857306191462E+01 -1.854859453238E+01
 -1.852242312788E+01 -1.849449383192E+01 -1.846475017846E+01 -1.843313261425E+01
 -1.839957801599E+01 -1.836401920988E+01 -1.832638448154E+01 -1.828659705812E+01
 -1.824457453666E+01 -1.820022822455E+01 -1.816932604585E+01 -1.813731835212E+01
 -1.810417308475E+01 -1.806985626585E+01 -1.803433178816E+01 -1.799756116889E+01
 -1.795950326128E+01 -1.792011391736E+01 -1.787934559418E+01 -1.783714689577E+01
 -1.779346204197E+01 -1.774823025531E+01 -1.770138505722E+01 -1.765285346540E+01
 -1.760255508595E+01 -1.755040109680E+01 -1.749629312358E+01 -1.744012201581E+01
 -1.738176654090E+01 -1.732109202559E+01 -1.725794899028E+01 -1.719217183949E+01
 -1.712357769255E+01 -1.705196545841E+01 -1.697711527689E+01 -1.689878846006E+01
 -1.681672806834E+01 -1.673066024045E+01 -1.664029636083E+01 -1.659340990334E+01
 -1.654533608902E+01 -1.649603617305E+01 -1.644547119469E+01 -1.639360212931E+01
 -1.634039004426E+01 -1.628579625561E+01 -1.622978248273E+01 -1.617231099722E+01
 -1.611334476286E+01 -1.605284756322E+01 -1.599078411378E+01 -1.592712015574E+01
 -1.586182252908E+01 -1.579485922318E+01 -1.572619940356E+01 -1.565581341465E+01
 -1.558367275857E+01 -1.550975005122E+01 -1.543401895741E+01 -1.535645410769E+01
 -1.527703099982E+01 -1.519572588877E+01 -1.511251566895E+01 -1.502737775318E+01
 -1.494028995247E+01 -1.485123036093E+01 -1.476017724985E+01 -1.466710897467E+01
 -1.457200389814E+01 -1.447484033270E+01 -1.437559650429E+01 -1.427425053968E+01
 -1.417078047853E+01 -1.406516431145E+01 -1.395738004419E+01 -1.384740578861E+01
 -1.373521988004E+01 -1.362080102091E+01 -1.350412845027E+01 -1.338518213868E+01
 -1.326394300818E+01 -1.314039317672E+01 -1.301451622714E+01 -1.288629750026E+01
 -1.275572441245E+01 -1.262278679775E+01 -1.248747727515E+01 -1.234979164172E+01
 -1.220972929237E+01 -1.206729366745E+01 -1.192249272931E+01 -1.177533946907E+01
 -1.162585244517E+01 -1.147405635488E+01 -1.131998264016E+01 -1.116367012908E+01
 -1.100516571371E+01 -1.084452506504E+01 -1.068181338517E+01 -1.051710619618E+01
 -1.035049016453E+01 -1.018206395874E+01 -1.001193913690E+01 -9.840241059322E+00
 -9.667109819503E+00 -9.492701185108E+00 -9.317187537723E+00 -9.140758797719E+00
 -8.963623317211E+00 -8.786008720545E+00 -8.608162667669E+00 -8.430353511324E+00
 -8.252870814202E+00 -8.076025687171E+00 -7.900150904527E+00 -7.725600747183E+00
 -7.552750520038E+00 -7.381995685748E+00 -7.213750554317E+00 -7.048446466587E+00
 -6.886529410539E+00 -6.728457012763E+00 -6.574694854091E+00 -6.425712068675E+00
 -6.281976200144E+00 -6.143947307162E+00 -6.012071333711E+00 -5.886772786637E+00
 -5.768446793751E+00 -5.657450649382E+00 -5.554094989306E+00 -5.458634771971E+00
 -5.371260190637E+00 -5.292088841463E+00 -5.221161156043E+00 -5.158431992867E+00
 -5.103750608799E+00 -5.056865826268E+00 -5.017421574134E+00 -4.984954883590E+00
 -4.958895682612E+00 -4.938568506878E+00 -4.923196149162E+00 -4.911905210084E+00
 -4.903733459077E+00 -4.897638874657E+00 -4.892510214846E+00 -4.887178979312E+00
 -4.880432670702E+00 -4.871029348043E+00 -4.857713591252E+00 -4.839234159372E+00
 -4.814363817063E+00 -4.781922007895E+00 -4.740801245868E+00 -4.689998158423E+00
 -4.634398085470E+00 -4.579444108282E+00 -4.525141728008E+00 -4.471483274405E+00
 -4.418461106442E+00 -4.366067678500E+00 -4.314295534521E+00 -4.263137306937E+00
 -4.212585715628E+00 -4.162633566874E+00 -4.113273752333E+00 -4.064499248023E+00
 -4.016303113315E+00 -3.968678489951E+00 -3.921618600933E+00 -3.875116750185E+00