<?xml version="1.0" encoding="UTF-8" ?>
<psml version="1.1" energy_unit="hartree" length_unit="bohr"
 uuid="5a1b0a50-be42-11e7-4f03-25017bfbd593"
 xmlns="http://esl.cecam.org/PSML/ns/1.1">
<provenance creator="ONCVPSP-3.3.0+psml-3.3.0-73 (scalar-relativistic)"
 date="2017-10-31">
<annotation action="semilocal-pseudopotential-generation"
 action-cont="projectors-generation" />
<input-file name="oncvpsp-input">
<![CDATA[# atsym z nc nv iexc psfile
Kr 36 6 2 4 upf
# n l f
1 0 2.0
2 0 2.0
2 1 6.0
3 0 2.0
3 1 6.0
3 2 10.0
4 0 2.0
4 1 6.0
# lmax
2
# l rc ep ncon nbas qcut
0 1.75 0.0 4 8 6.1
1 1.5 0.0 4 7 7.0
2 1.8 0.1 4 7 7.6
# lloc lpopt rc5 dvloc0
4 5 1.5 0.0
# l nproj debl
0 2 3.0
1 2 3.0
2 2 4.0
# icmod fcfact
3 7.0 1.24
# epsh1 epsh2 depsh
-12.0 12.0 0.02
# rlmax drl
6.0 0.01
 0
]]>
</input-file>
</provenance>
<pseudo-atom-spec atomic-label="Kr" atomic-number="36" z-pseudo="8"
 flavor="Hamann&apos;s oncvpsp" relativity="scalar" spin-dft="no"
 core-corrections="yes">
<annotation pseudo-energy="-18.5358873390" />
<exchange-correlation>
<annotation oncvpsp-xc-code="4" oncvpsp-xc-type="GGA -- Perdew-Burke-Ernzerhof" />
<libxc-info number-of-functionals="2">
<functional name="Perdew, Burke &amp; Ernzerhof (GGA)" type="exchange" id="101" />
<functional name="Perdew, Burke &amp; Ernzerhof (GGA)" type="correlation"
 id="130" />
</libxc-info>
</exchange-correlation>
<valence-configuration total-valence-charge="8">
<shell n="4" l="s" occupation="2" />
<shell n="4" l="p" occupation="6" />
</valence-configuration>
</pseudo-atom-spec>
<grid npts="457">
<annotation type="sampled from oncvpsp log grid"
 recipe="r(i:1..N) = r1*exp(a*(i-1)) + r=0; resampled"
 recipe-cont="r1: scale; a: step" scale="0.138888888889E-04"
 step="0.119285708653E-01" delta="0.500000000000E-02" rmax="44.0768648367" />
<grid-data>
  0.000000000000E+00  5.033159350498E-03  1.005334081446E-02  1.508161433186E-02
  2.032172843085E-02  2.549120590227E-02  3.085166315597E-02  3.602676308192E-02
  4.107815044163E-02  4.628241435380E-02  5.152768351151E-02  5.668716249522E-02
  6.236326131450E-02  6.779417908512E-02  7.282415956102E-02  7.822733879719E-02
  8.403140622808E-02  8.919575662272E-02  9.467749448230E-02  1.004961256101E-01
  1.066723545851E-01  1.118855320508E-01  1.173534823618E-01  1.230886565046E-01
  1.291041139573E-01  1.354135524264E-01  1.420313390386E-01  1.472060702126E-01
  1.525693361347E-01  1.581280058285E-01  1.638891985821E-01  1.698602930653E-01
  1.760489367809E-01  1.824630558582E-01  1.891108652054E-01  1.960008790302E-01
  2.031419217445E-01  2.105431392668E-01  2.156264928212E-01  2.208325788639E-01
  2.261643606480E-01  2.316248729715E-01  2.372172239045E-01  2.429445965584E-01
  2.488102508977E-01  2.548175255954E-01  2.609698399334E-01  2.672706957487E-01
  2.737236794269E-01  2.803324639430E-01  2.871008109524E-01  2.940325729321E-01
  3.011316953729E-01  3.084022190260E-01  3.158482822022E-01  3.234741231277E-01
  3.312840823565E-01  3.392826052409E-01  3.474742444618E-01  3.558636626201E-01
  3.644556348904E-01  3.732550517392E-01  3.822669217084E-01  3.914963742661E-01
  4.009486627264E-01  4.106291672393E-01  4.205433978531E-01  4.255899186273E-01
  4.306969976508E-01  4.358653616227E-01  4.410957459621E-01  4.463888949137E-01
  4.517455616526E-01  4.571665083925E-01  4.626525064932E-01  4.682043365711E-01
  4.738227886099E-01  4.795086620733E-01  4.852627660181E-01  4.910859192104E-01
  4.969789502409E-01  5.029426976438E-01  5.089780100155E-01  5.150857461357E-01
  5.212667750893E-01  5.275219763904E-01  5.338522401071E-01  5.402584669884E-01
  5.467415685922E-01  5.533024674153E-01  5.599420970243E-01  5.666614021886E-01
  5.734613390149E-01  5.803428750830E-01  5.873069895840E-01  5.943546734590E-01
  6.014869295406E-01  6.087047726950E-01  6.160092299674E-01  6.234013407270E-01
  6.308821568157E-01  6.384527426975E-01  6.461141756099E-01  6.538675457172E-01
  6.617139562658E-01  6.696545237410E-01  6.776903780259E-01  6.858226625622E-01
  6.940525345129E-01  7.023811649271E-01  7.108097389062E-01  7.193394557731E-01
  7.279715292424E-01  7.367071875933E-01  7.455476738444E-01  7.544942459305E-01
  7.635481768817E-01  7.727107550043E-01  7.819832840643E-01  7.913670834731E-01
  8.008634884748E-01  8.104738503365E-01  8.201995365405E-01  8.300419309790E-01
  8.400024341508E-01  8.500824633606E-01  8.602834529209E-01  8.706068543559E-01
  8.810541366082E-01  8.916267862475E-01  9.023263076825E-01  9.131542233747E-01
  9.241120740552E-01  9.352014189438E-01  9.464238359711E-01  9.577809220028E-01
  9.692742930668E-01  9.809055845836E-01  9.926764515986E-01  1.004588569018E+00
  1.016643631846E+00  1.028843355428E+00  1.041189475693E+00  1.053683749402E+00
  1.066327954394E+00  1.079123889847E+00  1.092073376525E+00  1.105178257044E+00
  1.118440396128E+00  1.131861680882E+00  1.145444021052E+00  1.159189349305E+00
  1.173099621497E+00  1.187176816955E+00  1.201422938758E+00  1.215840014023E+00
  1.230430094191E+00  1.245195255322E+00  1.260137598386E+00  1.275259249566E+00
  1.290562360561E+00  1.306049108888E+00  1.321721698194E+00  1.337582358573E+00
  1.353633346876E+00  1.369876947038E+00  1.386315470403E+00  1.402951256047E+00
  1.419786671120E+00  1.436824111173E+00  1.454066000507E+00  1.471514792514E+00
  1.489172970024E+00  1.507043045664E+00  1.525127562212E+00  1.543429092958E+00
  1.561950242074E+00  1.580693644979E+00  1.599661968719E+00  1.618857912343E+00
  1.638284207291E+00  1.657943617779E+00  1.677838941192E+00  1.697973008487E+00
  1.718348684588E+00  1.738968868803E+00  1.759836495229E+00  1.780954533172E+00
  1.802325987570E+00  1.823953899421E+00  1.845841346214E+00  1.867991442368E+00
  1.890407339677E+00  1.913092227753E+00  1.936049334486E+00  1.959281926500E+00
  1.982793309618E+00  2.006586829333E+00  2.030665871285E+00  2.055033861741E+00
  2.079694268081E+00  2.104650599298E+00  2.129906406490E+00  2.155465283368E+00
  2.181330866768E+00  2.207506837170E+00  2.233996919216E+00  2.260804882246E+00
  2.287934540833E+00  2.315389755323E+00  2.343174432387E+00  2.371292525576E+00
  2.399748035883E+00  2.428545012313E+00  2.457687552461E+00  2.487179803090E+00
  2.517025960727E+00  2.547230272256E+00  2.577797035523E+00  2.608730599950E+00
  2.640035367149E+00  2.671715791555E+00  2.703776381053E+00  2.736221697626E+00
  2.769056357998E+00  2.802285034294E+00  2.835912454705E+00  2.869943404162E+00
  2.904382725011E+00  2.939235317712E+00  2.974506141524E+00  3.010200215222E+00
  3.046322617805E+00  3.082878489219E+00  3.119873031089E+00  3.157311507462E+00
  3.195199245552E+00  3.233541636499E+00  3.272344136137E+00  3.311612265770E+00
  3.351351612959E+00  3.391567832315E+00  3.432266646303E+00  3.473453846058E+00
  3.515135292211E+00  3.557316915718E+00  3.600004718706E+00  3.643204775331E+00
  3.686923232635E+00  3.731166311426E+00  3.775940307163E+00  3.821251590849E+00
  3.867106609940E+00  3.913511889259E+00  3.960474031930E+00  4.007999720313E+00
  4.056095716957E+00  4.104768865560E+00  4.154026091947E+00  4.203874405050E+00
  4.254320897911E+00  4.305372748686E+00  4.357037221670E+00  4.409321668330E+00
  4.462233528350E+00  4.515780330690E+00  4.569969694659E+00  4.624809330995E+00
  4.680307042967E+00  4.736470727482E+00  4.793308376212E+00  4.850828076726E+00
  4.909038013647E+00  4.967946469811E+00  5.027561827449E+00  5.087892569378E+00
  5.148947280211E+00  5.210734647573E+00  5.273263463344E+00  5.336542624904E+00
  5.400581136403E+00  5.465388110040E+00  5.530972767360E+00  5.597344440569E+00
  5.664512573855E+00  5.732486724742E+00  5.801276565439E+00  5.870891884224E+00
  5.941342586835E+00  6.012638697877E+00  6.084790362251E+00  6.157807846598E+00
  6.231701540757E+00  6.306481959246E+00  6.382159742757E+00  6.458745659670E+00
  6.536250607586E+00  6.614685614878E+00  6.694061842256E+00  6.774390584363E+00
  6.855683271375E+00  6.937951470632E+00  7.021206888280E+00  7.105461370939E+00
  7.190726907390E+00  7.277015630279E+00  7.364339817842E+00  7.452711895656E+00
  7.542144438404E+00  7.632650171665E+00  7.724241973725E+00  7.816932877410E+00
  7.910736071939E+00  8.005664904802E+00  8.101732883660E+00  8.198953678263E+00
  8.297341122403E+00  8.396909215871E+00  8.497672126462E+00  8.599644191979E+00
  8.702839922283E+00  8.807274001351E+00  8.912961289367E+00  9.019916824839E+00
  9.128155826737E+00  9.237693696658E+00  9.348546021018E+00  9.460728573270E+00
  9.574257316149E+00  9.689148403943E+00  9.805418184791E+00  9.923083203008E+00
  1.004216020144E+01  1.016266612386E+01  1.028461811735E+01  1.040803353476E+01
  1.053292993717E+01  1.065932509642E+01  1.078723699758E+01  1.091668384155E+01
  1.104768404765E+01  1.118025625622E+01  1.131441933129E+01  1.145019236327E+01
  1.158759467163E+01  1.172664580769E+01  1.186736555738E+01  1.200977394407E+01
  1.215389123140E+01  1.229973792617E+01  1.244733478129E+01  1.259670279866E+01
  1.274786323225E+01  1.290083759103E+01  1.305564764213E+01  1.321231541383E+01
  1.337086319880E+01  1.353131355718E+01  1.369368931987E+01  1.385801359171E+01
  1.402430975481E+01  1.419260147187E+01  1.436291268953E+01  1.453526764180E+01
  1.470969085350E+01  1.488620714375E+01  1.506484162947E+01  1.524561972902E+01
  1.542856716577E+01  1.561370997176E+01  1.580107449142E+01  1.599068738532E+01
  1.618257563394E+01  1.637676654155E+01  1.657328774005E+01  1.677216719293E+01
  1.697343319925E+01  1.717711439764E+01  1.738323977041E+01  1.759183864765E+01
  1.780294071142E+01  1.801657599996E+01  1.823277491196E+01  1.845156821091E+01
  1.867298702944E+01  1.889706287379E+01  1.912382762827E+01  1.935331355981E+01
  1.958555332253E+01  1.982057996240E+01  2.005842692195E+01  2.029912804501E+01
  2.054271758155E+01  2.078923019253E+01  2.103870095484E+01  2.129116536630E+01
  2.154665935070E+01  2.180521926291E+01  2.206688189406E+01  2.233168447679E+01
  2.259966469051E+01  2.287086066680E+01  2.314531099480E+01  2.342305472674E+01
  2.370413138346E+01  2.398858096006E+01  2.427644393158E+01  2.456776125876E+01
  2.486257439386E+01  2.516092528659E+01  2.546285639003E+01  2.576841066671E+01
  2.607763159471E+01  2.639056317385E+01  2.670724993193E+01  2.702773693112E+01
  2.735206977429E+01  2.768029461158E+01  2.801245814692E+01  2.834860764468E+01
  2.868879093642E+01  2.903305642766E+01  2.938145310479E+01  2.973403054204E+01
  3.009083890855E+01  3.045192897545E+01  3.081735212316E+01  3.118716034863E+01
  3.156140627282E+01  3.194014314809E+01  3.232342486587E+01  3.271130596426E+01
  3.310384163583E+01  3.350108773546E+01  3.390310078829E+01  3.430993799775E+01
  3.472165725372E+01  3.513831714076E+01  3.555997694645E+01  3.598669666981E+01
  3.641853702985E+01  3.685555947421E+01  3.729782618790E+01  3.774540010215E+01
  3.819834490338E+01  3.865672504222E+01  3.912060574272E+01  3.959005301164E+01
  4.006513364778E+01  4.054591525155E+01  4.103246623457E+01  4.152485582938E+01
  4.202315409934E+01  4.252743194853E+01  4.303776113191E+01  4.355421426549E+01
  4.407686483668E+01
</grid-data>
</grid>
<valence-charge total-charge="8" is-unscreening-charge="yes"
 rescaled-to-z-pseudo="no">
<radfunc>
<data npts="457">
  1.661099547080E-02  1.665300462545E-02  1.677866022377E-02  1.698855109615E-02
  1.729710610019E-02  1.769180115563E-02  1.819644611966E-02  1.877652822260E-02
  1.943160248811E-02  2.019931679404E-02  2.106956691394E-02  2.202137397909E-02
  2.317991117877E-02  2.439951208773E-02  2.562770583674E-02  2.705463387990E-02
  2.871405787848E-02  3.030314510407E-02  3.210838229023E-02  3.416106702793E-02
  3.649748150001E-02  3.859900500163E-02  4.093369189758E-02  4.352952027221E-02
  4.641819412890E-02  4.963569460975E-02  5.322291854559E-02  5.618373553226E-02
  5.940057326487E-02  6.289771840539E-02  6.670200228718E-02  7.084308713430E-02
  7.535378455801E-02  8.027040951226E-02  8.563317304059E-02  9.148661725158E-02
  9.788009599589E-02  1.048683046586E-01  1.098871886533E-01  1.152167572750E-01
  1.208779489418E-01  1.268931825576E-01  1.332864580585E-01  1.400834621597E-01
  1.473116792320E-01  1.550005071587E-01  1.631813779251E-01  1.718878825743E-01
  1.811559000258E-01  1.910237290895E-01  2.015322228126E-01  2.127249240786E-01
  2.246482011126E-01  2.373513812544E-01  2.508868810161E-01  2.653103300537E-01
  2.806806862434E-01  2.970603385577E-01  3.145151938823E-01  3.331147433035E-01
  3.529321027129E-01  3.740440218388E-01  3.965308550036E-01  4.204764860429E-01
  4.459681988966E-01  4.730964844151E-01  5.019547729209E-01  5.170625840760E-01
  5.326390810421E-01  5.486965959927E-01  5.652475603250E-01  5.823044842257E-01
  5.998799341516E-01  6.179865081055E-01  6.366368085846E-01  6.558434130766E-01
  6.756188419779E-01  6.959755238063E-01  7.169257575817E-01  7.384816722467E-01
  7.606551830036E-01  7.834579444424E-01  8.069013003414E-01  8.309962300247E-01
  8.557532911664E-01  8.811825589394E-01  9.072935614151E-01  9.340952111302E-01
  9.615957327493E-01  9.898025867667E-01  1.018722389205E+00  1.048360827291E+00
  1.078722571102E+00  1.109811181206E+00  1.141629012353E+00  1.174177113273E+00
  1.207455122707E+00  1.241461161808E+00  1.276191723091E+00  1.311641556154E+00
  1.347803550436E+00  1.384668615338E+00  1.422225558046E+00  1.460460959510E+00
  1.499359049031E+00  1.538901578010E+00  1.579067693465E+00  1.619833811983E+00
  1.661173494853E+00  1.703057325203E+00  1.745452788033E+00  1.788324154112E+00
  1.831632368796E+00  1.875334946893E+00  1.919385874792E+00  1.963735521148E+00
  2.008330557485E+00  2.053113890173E+00  2.098024605297E+00  2.142997927996E+00
  2.187965197932E+00  2.232853862577E+00  2.277587490075E+00  2.322085803458E+00
  2.366264737997E+00  2.410036523515E+00  2.453309793425E+00  2.495989722268E+00
  2.537978193423E+00  2.579173998624E+00  2.619473070770E+00  2.658768751396E+00
  2.696952093972E+00  2.733912204024E+00  2.769536616772E+00  2.803711712722E+00
  2.836323171304E+00  2.867256462255E+00  2.896397374057E+00  2.923632578226E+00
  2.948850227775E+00  2.971940587598E+00  2.992796693950E+00  3.011315039542E+00
  3.027396280170E+00  3.040945958066E+00  3.051875236539E+00  3.060101639759E+00
  3.065549790891E+00  3.068152141168E+00  3.067849681905E+00  3.064592630944E+00
  3.058341084621E+00  3.049065626004E+00  3.036747880005E+00  3.021381005923E+00
  3.002970118124E+00  2.981532625916E+00  2.957098484213E+00  2.929710347345E+00
  2.899423619392E+00  2.866306395626E+00  2.830439291104E+00  2.791915154141E+00
  2.750838664230E+00  2.707325816032E+00  2.661503293201E+00  2.613507738044E+00
  2.563484925277E+00  2.511588850357E+00  2.457980744954E+00  2.402828034045E+00
  2.346303250745E+00  2.288582926276E+00  2.229846174749E+00  2.170272046383E+00
  2.110036244637E+00  2.049309812016E+00  1.988258710364E+00  1.927042801479E+00
  1.865815143507E+00  1.804721325607E+00  1.743898895633E+00  1.683476885463E+00
  1.623575441204E+00  1.564305563841E+00  1.505768963886E+00  1.448058168210E+00
  1.391257293663E+00  1.335443175740E+00  1.280685655679E+00  1.227047513844E+00
  1.174584715707E+00  1.123346575579E+00  1.073375958009E+00  1.024709495836E+00
  9.773778241307E-01  9.314058274846E-01  8.868128987000E-01  8.436132063168E-01
  8.018159690227E-01  7.614257349052E-01  7.224426636370E-01  6.848628098177E-01
  6.486784058116E-01  6.138781425564E-01  5.804474469428E-01  5.483687544998E-01
  5.176217762494E-01  4.881837587213E-01  4.600297362494E-01  4.331327747987E-01
  4.074642066198E-01  3.829938553370E-01  3.596902509049E-01  3.375208341861E-01
  3.164521509098E-01  2.964500348697E-01  2.774797803022E-01  2.595063034581E-01
  2.424942934463E-01  2.264083524861E-01  2.112131257557E-01  1.968734210687E-01
  1.833543186466E-01  1.706212712862E-01  1.586401952453E-01  1.473775521898E-01
  1.368004225578E-01  1.268765707077E-01  1.175745022211E-01  1.088635137370E-01
  1.007137356906E-01  9.309616833030E-02  8.598271138386E-02  7.934618773793E-02
  7.316036149301E-02  6.739995074897E-02  6.204063547160E-02  5.705906078469E-02
  5.243283602702E-02  4.814052990740E-02  4.416166208525E-02  4.047669149783E-02
  3.706700174838E-02  3.391488386194E-02  3.100351670773E-02  2.831694537745E-02
  2.584005779955E-02  2.355855985807E-02  2.145894927318E-02  1.952848848788E-02
  1.775517679148E-02  1.612772189680E-02  1.463551117265E-02  1.326858271854E-02
  1.201759645233E-02  1.087380536665E-02  9.829027093612E-03  8.875615902187E-03
  8.006435237421E-03  7.214830895770E-03  6.494604916716E-03  5.839990257258E-03
  5.245626303001E-03  4.706535257597E-03  4.218099441119E-03  3.776039517772E-03
  3.376393664041E-03  3.015497680141E-03  2.689966040273E-03  2.396673870914E-03
  2.132739840908E-03  1.895509942688E-03  1.682542140297E-03  1.491591857051E-03
  1.320598273573E-03  1.167671405489E-03  1.031079929161E-03  9.092397234901E-04
  8.007030958144E-04  7.041486602959E-04  6.183718378277E-04  5.422759472991E-04
  4.748638590271E-04  4.152301822059E-04  3.625539593259E-04  3.160918416129E-04
  2.751717206363E-04  2.391867922903E-04  2.075900303632E-04  1.798890478745E-04
  1.556413252559E-04  1.344497853071E-04  1.159586956502E-04  9.984988015767E-05
  8.583922153770E-05  7.367343793622E-05  6.312711706180E-05  5.399999196562E-05
  4.611444321838E-05  3.931321282371E-05  3.345731579838E-05  2.842413593402E-05
  2.410569283748E-05  2.040706792621E-05  1.724497763296E-05  1.454648264946E-05
  1.224782261119E-05  1.029336619297E-05  8.634667147151E-06  7.229617370143E-06
  6.041688627394E-06  5.039255099633E-06  4.194989432620E-06  3.485325476757E-06
  2.889981390359E-06  2.391537249612E-06  1.975061758175E-06  1.627783078955E-06
  1.338799219073E-06  1.098823785996E-06  8.999632977803E-07  7.355225734681E-07
  5.998350507577E-07  4.881151776348E-07  3.963303029515E-07  3.210897486385E-07
  2.595489839766E-07  2.093270409084E-07  1.684355096064E-07  1.352176363280E-07
  1.082962119355E-07  8.652909032497E-08  6.897131237267E-08  5.484293386879E-08
  4.350176624302E-08  3.442033765246E-08  2.716647013217E-08  2.138694689775E-08
  1.679381339382E-08  1.315291711700E-08  1.027434537200E-08  8.004467666147E-09
  6.219331080060E-09  4.819193293790E-09  3.724009570921E-09  2.869717435765E-09
  2.205186501498E-09  1.689721357709E-09  1.291023000496E-09  9.835293439553E-10
  7.470682091319E-10  5.657671314979E-10  4.271736156639E-10  3.215473220578E-10
  2.412922941339E-10  1.805029015033E-10  1.346018377036E-10  1.000524050132E-10
  7.413055909011E-11  5.474487394442E-11  4.029480965515E-11  2.955949585714E-11
  2.161074714456E-11  1.574525652505E-11  1.143191606900E-11  8.271028967132E-12
  5.962837223962E-12  4.283321774356E-12  3.065659988613E-12  2.186068541248E-12
  1.553033396788E-12  1.099146379403E-12  7.749402775248E-13  5.442505712931E-13
  3.807389101971E-13  2.652973061040E-13  1.841174167728E-13  1.272601270153E-13
  8.759998087838E-14  6.004935161000E-14  4.099052629527E-14  2.786169091749E-14
  1.885636267829E-14  1.270609954162E-14  8.524081384527E-15  5.692994599225E-15
  3.785021584640E-15  2.504993778229E-15  1.650181137123E-15  1.081979292974E-15
  7.060639323853E-16  4.585449563777E-16  2.963516650593E-16  1.905876580477E-16
  1.219602046404E-16  7.765172055756E-17  4.918885304228E-17  3.099827383053E-17
  1.943279229965E-17  1.211799115515E-17  7.516107132352E-18  0.000000000000E+00
  0.000000000000E+00  0.000000000000E+00  0.000000000000E+00  0.000000000000E+00
  0.000000000000E+00  0.000000000000E+00  0.000000000000E+00  0.000000000000E+00
  0.000000000000E+00  0.000000000000E+00  0.000000000000E+00  0.000000000000E+00
  0.000000000000E+00  0.000000000000E+00  0.000000000000E+00  0.000000000000E+00
  0.000000000000E+00  0.000000000000E+00  0.000000000000E+00  0.000000000000E+00
  0.000000000000E+00  0.000000000000E+00  0.000000000000E+00  0.000000000000E+00
  0.000000000000E+00  0.000000000000E+00  0.000000000000E+00  0.000000000000E+00
  0.000000000000E+00  0.000000000000E+00  0.000000000000E+00  0.000000000000E+00
  0.000000000000E+00  0.000000000000E+00  0.000000000000E+00  0.000000000000E+00
  0.000000000000E+00  0.000000000000E+00  0.000000000000E+00  0.000000000000E+00
  0.000000000000E+00  0.000000000000E+00  0.000000000000E+00  0.000000000000E+00
  0.000000000000E+00  0.000000000000E+00  0.000000000000E+00  0.000000000000E+00
  0.000000000000E+00  0.000000000000E+00  0.000000000000E+00  0.000000000000E+00
  0.000000000000E+00
</data>
</radfunc>
</valence-charge>
<pseudocore-charge matching-radius="1.05368374940"
 number-of-continuous-derivatives="4">
<annotation model-charge-form="Teter function with specified parameters" />
<radfunc>
<data npts="290">
  2.230419535731E+01  2.230314965266E+01  2.230002359088E+01  2.229480791521E+01
  2.228715404318E+01  2.227738680038E+01  2.226493663232E+01  2.225067742912E+01
  2.223464104961E+01  2.221593549457E+01  2.219484518000E+01  2.217191428756E+01
  2.214419101069E+01  2.211522522349E+01  2.208627720206E+01  2.205291832947E+01
  2.201448433682E+01  2.197803287097E+01  2.193703101617E+01  2.189092037787E+01
  2.183907663430E+01  2.179300784367E+01  2.174243129635E+01  2.168691747501E+01
  2.162599836288E+01  2.155916450874E+01  2.148586198234E+01  2.142628003784E+01
  2.136244976649E+01  2.129408196606E+01  2.122086985530E+01  2.114248833748E+01
  2.105859329002E+01  2.096882089280E+01  2.087278701037E+01  2.077008664541E+01
  2.066029348421E+01  2.054295955749E+01  2.046031651631E+01  2.037396905262E+01
  2.028376824845E+01  2.018956091989E+01  2.009118967988E+01  1.998849302681E+01
  1.988130546186E+01  1.976945763814E+01  1.965277654500E+01  1.953108573120E+01
  1.940420557054E+01  1.927195357425E+01  1.913414475419E+01  1.899059204161E+01
  1.884110676599E+01  1.868549919906E+01  1.852357916906E+01  1.835515675059E+01
  1.818004303532E+01  1.799805098933E+01  1.780899640234E+01  1.761269893452E+01
  1.740898326619E+01  1.719768035563E+01  1.697862880992E+01  1.675167637315E+01
  1.651668153610E+01  1.627351527019E+01  1.602206288832E+01  1.589319797239E+01
  1.576222603327E+01  1.562913767501E+01  1.549392479365E+01  1.535658065017E+01
  1.521709994528E+01  1.507547889604E+01  1.493171531421E+01  1.478580868631E+01
  1.463776025524E+01  1.448757310340E+01  1.433525223725E+01  1.418080467304E+01
  1.402423952377E+01  1.386556808704E+01  1.370480393376E+01  1.354196299746E+01
  1.337706366402E+01  1.321012686159E+01  1.304117615047E+01  1.287023781267E+01
  1.269734094089E+01  1.252251752664E+01  1.234580254706E+01  1.216723405027E+01
  1.198685323871E+01  1.180470455020E+01  1.162083573618E+01  1.143529793689E+01
  1.124814575274E+01  1.105943731163E+01  1.086923433156E+01  1.067760217806E+01
  1.048460991588E+01  1.029033035423E+01  1.009484008519E+01  9.898219514461E+00
  9.700552883885E+00  9.501928285129E+00  9.302437663743E+00  9.102176812983E+00
  8.901245356669E+00  8.699746720368E+00  8.497788090197E+00  8.295480358532E+00
  8.092938055905E+00  7.890279268410E+00  7.687625539914E+00  7.485101758421E+00
  7.282836025943E+00  7.080959511275E+00  6.879606285110E+00  6.678913136966E+00
  6.479019373469E+00  6.280066597588E+00  6.082198468489E+00  5.885560441767E+00
  5.690299489892E+00  5.496563802825E+00  5.304502468839E+00  5.114265135740E+00
  4.926001652788E+00  4.739861693758E+00  4.555994361751E+00  4.374547776516E+00
  4.195668645203E+00  4.019501817667E+00  3.846189827623E+00  3.675872421132E+00
  3.508686074124E+00  3.344763500855E+00  3.184233155399E+00  3.027218728498E+00
  2.873838642294E+00  2.724205545690E+00  2.578425813261E+00  2.436599050853E+00
  2.298817611193E+00  2.165166122982E+00  2.035721037120E+00  1.910550193824E+00
  1.789712414524E+00  1.673257122485E+00  1.561223996163E+00  1.453642659322E+00
  1.350532411872E+00  1.251902005370E+00  1.157749466972E+00  1.068061975449E+00
  9.828157927039E-01  9.019762538776E-01  8.254978188673E-01  7.533241876328E-01
  6.853884812407E-01  6.216134900693E-01  5.619119900339E-01  5.061871270576E-01
  4.543328693421E-01  4.062345262623E-01  3.617693319482E-01  3.208070908169E-01
  2.832108815005E-01  2.488378147803E-01  2.175398403057E-01  1.891645960578E-01
  1.635562937207E-01  1.405566323799E-01  1.200057322733E-01  1.017430797103E-01
  8.560847375268E-02  7.144296484849E-02  5.908977532425E-02  4.839519150912E-02
  3.920941728290E-02  3.138737903080E-02  2.478947235649E-02  1.928224145847E-02
  1.473898281615E-02  1.104026575826E-02  8.074363592726E-03  5.737590251094E-03
  3.934538826287E-03  2.578219938165E-03  1.590099519213E-03  9.000373412307E-04
  4.461293658452E-04  1.744587563680E-04  3.876209199487E-05  1.893156878822E-08
  2.597433638954E-05  9.060523382734E-05  1.735425421593E-04  2.594617425791E-04
  3.374550431352E-04  4.003984055239E-04  4.443264826461E-04  4.678279369101E-04
  4.714726827270E-04  4.572813405931E-04  4.282456368501E-04  3.879066777812E-04
  3.399960263471E-04  2.881423823178E-04  2.356444879009E-04  1.853087328720E-04
  1.393478994969E-04  9.933565041641E-05  6.620979861560E-05  4.031617417958E-05
  2.148407036297E-05  9.123846639528E-06  2.337303437533E-06  3.191435939291E-08
  1.030875769726E-06  4.172157044634E-06  8.391233317338E-06  1.278386512024E-05
  1.664705288111E-05  1.949803003368E-05  2.107275913607E-05  2.130676223091E-05
  2.030216720381E-05  1.828552624808E-05  1.556122874478E-05  1.246518810214E-05
  9.322961607114E-06  6.415625629230E-06  3.955662803849E-06  2.073928920048E-06
  8.175703177790E-07  1.576715856351E-07  4.529915891536E-09  2.278557336924E-07
  6.789373034019E-07  1.211891586555E-06  1.701528173793E-06  2.056015535144E-06
  2.223368284733E-06  2.191661648407E-06  1.983710993023E-06  1.647625797153E-06
  1.245077728640E-06  8.392647743040E-07  4.844018939126E-07  2.181598011902E-07
  5.788059751817E-08  7.216686325158E-10  0.000000000000E+00  0.000000000000E+00
  0.000000000000E+00  0.000000000000E+00  0.000000000000E+00  0.000000000000E+00
  0.000000000000E+00  0.000000000000E+00  0.000000000000E+00  0.000000000000E+00
  0.000000000000E+00  0.000000000000E+00  0.000000000000E+00  0.000000000000E+00
  0.000000000000E+00  0.000000000000E+00  0.000000000000E+00  0.000000000000E+00
  0.000000000000E+00  0.000000000000E+00  0.000000000000E+00  0.000000000000E+00
  0.000000000000E+00  0.000000000000E+00  0.000000000000E+00  0.000000000000E+00
  0.000000000000E+00  0.000000000000E+00  0.000000000000E+00  0.000000000000E+00
  0.000000000000E+00  0.000000000000E+00  0.000000000000E+00  0.000000000000E+00
  0.000000000000E+00  0.000000000000E+00
</data>
</radfunc>
</pseudocore-charge>
<semilocal-potentials set="scalar_relativistic">
<slps n="4" l="s" rc="1.75983649523" eref="-0.847037657014">
<radfunc>
<data npts="290">
  4.904348817150E+01  4.901533026260E+01  4.893130510782E+01  4.879161586885E+01
  4.858775523871E+01  4.832953781493E+01  4.800349372586E+01  4.763428002301E+01
  4.722431801673E+01  4.675302294320E+01  4.623035261676E+01  4.567227494319E+01
  4.501135049120E+01  4.433641291162E+01  4.367728591993E+01  4.293613591122E+01
  4.210572256405E+01  4.134043197160E+01  4.050441567463E+01  3.959418990286E+01
  3.860677215439E+01  3.775967311183E+01  3.686085496948E+01  3.590989889433E+01
  3.490683648018E+01  3.385220115697E+01  3.274707386228E+01  3.188607234317E+01
  3.099852132423E+01  3.008554603659E+01  2.914847021139E+01  2.818881422283E+01
  2.720829016596E+01  2.620879375803E+01  2.519239303430E+01  2.416131390095E+01
  2.311792270288E+01  2.206470606085E+01  2.135837598168E+01  2.064961099834E+01
  1.993920707396E+01  1.922796777003E+01  1.851670069022E+01  1.780621389755E+01
  1.709731234072E+01  1.639079432507E+01  1.568744806339E+01  1.498804834013E+01
  1.429335332132E+01  1.360410153995E+01  1.292100908388E+01  1.224476701058E+01
  1.157603900915E+01  1.091545932702E+01  1.026363097431E+01  9.621124215585E+00
  8.988475354376E+00  8.366185812329E+00  7.754721501014E+00  7.154512480975E+00
  6.565952899342E+00  5.989401194294E+00  5.425180552021E+00  4.873579599418E+00
  4.334853313746E+00  3.809224128735E+00  3.296883215293E+00  3.045747402654E+00
  2.797991913851E+00  2.553632511479E+00  2.312683294623E+00  2.075156752907E+00
  1.841063821586E+00  1.610413937494E+00  1.383215095659E+00  1.159473906380E+00
  9.391956526027E-01  7.223843473802E-01  5.090427912552E-01  2.991726293640E-01
  9.277440809853E-02 -1.101523688653E-01 -3.096091853476E-01 -5.055984584005E-01
 -6.981234852049E-01 -8.871883912571E-01 -1.072798080024E+00 -1.254958184218E+00
 -1.433675018829E+00 -1.608955536078E+00 -1.780807282406E+00 -1.949238357651E+00
 -2.114257376522E+00 -2.275873432488E+00 -2.434096064202E+00 -2.588935224533E+00
 -2.740401252326E+00 -2.888504846929E+00 -3.033257045591E+00 -3.174669203740E+00
 -3.312752978221E+00 -3.447520313451E+00 -3.578983430588E+00 -3.707154819524E+00
 -3.832047233992E+00 -3.953673689160E+00 -4.072047462335E+00 -4.187182096040E+00
 -4.299091403650E+00 -4.407789477335E+00 -4.513290698055E+00 -4.615609747403E+00
 -4.714761620971E+00 -4.810761642923E+00 -4.903625481392E+00 -4.993369164265E+00
 -5.080009094892E+00 -5.163562067190E+00 -5.244045279543E+00 -5.321476346898E+00
 -5.395873310329E+00 -5.467254643366E+00 -5.535639254252E+00 -5.601046483320E+00
 -5.663496094584E+00 -5.723008260602E+00 -5.779603539674E+00 -5.833302844385E+00
 -5.884127400508E+00 -5.932098695290E+00 -5.977238414206E+00 -6.019568365295E+00
 -6.059110390300E+00 -6.095886261981E+00 -6.129917567134E+00 -6.161225575081E+00
 -6.189831091663E+00 -6.215754299159E+00 -6.239014582920E+00 -6.259630345993E+00
 -6.277618813623E+00 -6.292995830081E+00 -6.305775651013E+00 -6.315970735312E+00
 -6.323591541293E+00 -6.328646332951E+00 -6.331141002951E+00 -6.331078920074E+00
 -6.328460809812E+00 -6.323284677839E+00 -6.315545787081E+00 -6.305236700057E+00
 -6.292347399042E+00 -6.276865497336E+00 -6.258776555552E+00 -6.238064517215E+00
 -6.214712278097E+00 -6.188702403509E+00 -6.160018007169E+00 -6.128643804133E+00