<?xml version="1.0" encoding="UTF-8" ?>
<psml version="1.1" energy_unit="hartree" length_unit="bohr"
 uuid="2063c2d0-be41-11e7-5ec2-7199fddbe3d8"
 xmlns="http://esl.cecam.org/PSML/ns/1.1">
<provenance creator="ONCVPSP-3.3.0+psml-3.3.0-73 (scalar-relativistic)"
 date="2017-10-31">
<annotation action="semilocal-pseudopotential-generation"
 action-cont="projectors-generation" />
<input-file name="oncvpsp-input">
<![CDATA[# atsym z nc nv iexc psfile
B 5 1 2 4 upf
# n l f
1 0 2.0
2 0 2.0
2 1 1.0
# lmax
1
# l rc ep ncon nbas qcut
0 1.2 0.0 4 8 7.6
1 1.2 0.0 4 8 8.8
# lloc lpopt rc5 dvloc0
4 5 1.2 0.0
# l nproj debl
0 2 8.5
1 2 1.5
# icmod fcfact
3 2.9 1.45
# epsh1 epsh2 depsh
-12.0 12.0 0.02
# rlmax drl
6.0 0.01
 0
]]>
</input-file>
</provenance>
<pseudo-atom-spec atomic-label="B" atomic-number="5" z-pseudo="3"
 flavor="Hamann&apos;s oncvpsp" relativity="scalar" spin-dft="no"
 core-corrections="yes">
<annotation pseudo-energy="-2.59936979216" />
<exchange-correlation>
<annotation oncvpsp-xc-code="4" oncvpsp-xc-type="GGA -- Perdew-Burke-Ernzerhof" />
<libxc-info number-of-functionals="2">
<functional name="Perdew, Burke &amp; Ernzerhof (GGA)" type="exchange" id="101" />
<functional name="Perdew, Burke &amp; Ernzerhof (GGA)" type="correlation"
 id="130" />
</libxc-info>
</exchange-correlation>
<valence-configuration total-valence-charge="3">
<shell n="2" l="s" occupation="2" />
<shell n="2" l="p" occupation="1" />
</valence-configuration>
</pseudo-atom-spec>
<grid npts="457">
<annotation type="sampled from oncvpsp log grid"
 recipe="r(i:1..N) = r1*exp(a*(i-1)) + r=0; resampled"
 recipe-cont="r1: scale; a: step" scale="0.100000000000E-03"
 step="0.119285708653E-01" delta="0.500000000000E-02" rmax="44.3362164955" />
<grid-data>
  0.000000000000E+00  5.002741943459E-03  1.011249544414E-02  1.517035570920E-02
  2.019891604953E-02  2.533715228865E-02  3.066521414240E-02  3.580903885730E-02
  4.082989865078E-02  4.600271110220E-02  5.121628098796E-02  5.634457916426E-02
  6.198637503461E-02  6.738447158402E-02  7.325266251047E-02  7.868763446835E-02
  8.452585347789E-02  8.972059130699E-02  9.523458413327E-02  1.010874525337E-01
  1.073000229144E-01  1.125438751168E-01  1.180439992675E-01  1.238129196156E-01
  1.298637724820E-01  1.362103361718E-01  1.428670623488E-01  1.480722420386E-01
  1.534670658293E-01  1.590584431627E-01  1.648535352170E-01  1.708597640790E-01
  1.770848222496E-01  1.835366824963E-01  1.902236080644E-01  1.971541632598E-01
  2.043372244181E-01  2.117819912728E-01  2.168952556701E-01  2.221319747230E-01
  2.274951291207E-01  2.329877715182E-01  2.386130282737E-01  2.443741012284E-01
  2.502742695284E-01  2.563168914919E-01  2.625054065201E-01  2.688433370551E-01
  2.753342905850E-01  2.819819616969E-01  2.887901341801E-01  2.957626831797E-01
  3.029035774024E-01  3.102168813752E-01  3.177067577591E-01  3.253774697185E-01
  3.332333833474E-01  3.412789701549E-01  3.495188096103E-01  3.579575917496E-01
  3.666001198448E-01  3.754513131383E-01  3.845162096427E-01  3.937999690083E-01
  4.033078754601E-01  4.130453408052E-01  4.230179075136E-01  4.280941224037E-01
  4.332312518726E-01  4.384300268950E-01  4.436911872178E-01  4.490154814644E-01
  4.544036672420E-01  4.598565112489E-01  4.653747893839E-01  4.709592868565E-01
  4.766107982987E-01  4.823301278783E-01  4.881180894129E-01  4.939755064858E-01
  4.999032125636E-01  5.059020511144E-01  5.119728757278E-01  5.181165502365E-01
  5.243339488394E-01  5.306259562254E-01  5.369934677001E-01  5.434373893125E-01
  5.499586379843E-01  5.565581416401E-01  5.632368393398E-01  5.699956814119E-01
  5.768356295888E-01  5.837576571439E-01  5.907627490296E-01  5.978519020179E-01
  6.050261248422E-01  6.122864383403E-01  6.196338756004E-01  6.270694821076E-01
  6.345943158928E-01  6.422094476836E-01  6.499159610558E-01  6.577149525884E-01
  6.656075320195E-01  6.735948224037E-01  6.816779602726E-01  6.898580957958E-01
  6.981363929454E-01  7.065140296607E-01  7.149921980167E-01  7.235721043929E-01
  7.322549696456E-01  7.410420292813E-01  7.499345336327E-01  7.589337480363E-01
  7.680409530127E-01  7.772574444489E-01  7.865845337823E-01  7.960235481877E-01
  8.055758307659E-01  8.152427407351E-01  8.250256536239E-01  8.349259614674E-01
  8.449450730050E-01  8.550844138811E-01  8.653454268477E-01  8.757295719698E-01
  8.862383268335E-01  8.968731867555E-01  9.076356649965E-01  9.185272929765E-01
  9.295496204922E-01  9.407042159381E-01  9.519926665294E-01  9.634165785277E-01
  9.749775774701E-01  9.866773083997E-01  9.985174361005E-01  1.010499645334E+00
  1.022625641078E+00  1.034897148771E+00  1.047315914556E+00  1.059883705531E+00
  1.072602309997E+00  1.085473537717E+00  1.098499220169E+00  1.111681210812E+00
  1.125021385341E+00  1.138521641965E+00  1.152183901669E+00  1.166010108489E+00
  1.180002229791E+00  1.194162256548E+00  1.208492203627E+00  1.222994110070E+00
  1.237670039391E+00  1.252522079864E+00  1.267552344822E+00  1.282762972960E+00
  1.298156128636E+00  1.313734002179E+00  1.329498810206E+00  1.345452795928E+00
  1.361598229479E+00  1.377937408233E+00  1.394472657132E+00  1.411206329017E+00
  1.428140804965E+00  1.445278494625E+00  1.462621836561E+00  1.480173298599E+00
  1.497935378182E+00  1.515910602721E+00  1.534101529953E+00  1.552510748313E+00
  1.571140877292E+00  1.589994567820E+00  1.609074502634E+00  1.628383396665E+00
  1.647923997425E+00  1.667699085395E+00  1.687711474419E+00  1.707964012112E+00
  1.728459580258E+00  1.749201095221E+00  1.770191508363E+00  1.791433806464E+00
  1.812931012141E+00  1.834686184287E+00  1.856702418498E+00  1.878982847520E+00
  1.901530641691E+00  1.924349009391E+00  1.947441197504E+00  1.970810491874E+00
  1.994460217776E+00  2.018393740389E+00  2.042614465274E+00  2.067125838857E+00
  2.091931348924E+00  2.117034525111E+00  2.142438939412E+00  2.168148206685E+00
  2.194165985165E+00  2.220495976987E+00  2.247141928711E+00  2.274107631856E+00
  2.301396923438E+00  2.329013686519E+00  2.356961850757E+00  2.385245392967E+00
  2.413868337682E+00  2.442834757734E+00  2.472148774827E+00  2.501814560125E+00
  2.531836334847E+00  2.562218370865E+00  2.592964991315E+00  2.624080571211E+00
  2.655569538065E+00  2.687436372522E+00  2.719685608992E+00  2.752321836300E+00
  2.785349698336E+00  2.818773894716E+00  2.852599181453E+00  2.886830371630E+00
  2.921472336090E+00  2.956530004123E+00  2.992008364172E+00  3.027912464542E+00
  3.064247414117E+00  3.101018383086E+00  3.138230603683E+00  3.175889370927E+00
  3.214000043378E+00  3.252568043899E+00  3.291598860426E+00  3.331098046751E+00
  3.371071223312E+00  3.411524077992E+00  3.452462366928E+00  3.493891915331E+00
  3.535818618315E+00  3.578248441734E+00  3.621187423035E+00  3.664641672112E+00
  3.708617372177E+00  3.753120780643E+00  3.798158230011E+00  3.843736128771E+00
  3.889860962316E+00  3.936539293864E+00  3.983777765390E+00  4.031583098575E+00
  4.079962095758E+00  4.128921640907E+00  4.178468700598E+00  4.228610325005E+00
  4.279353648905E+00  4.330705892692E+00  4.382674363404E+00  4.435266455765E+00
  4.488489653234E+00  4.542351529073E+00  4.596859747422E+00  4.652022064391E+00
  4.707846329164E+00  4.764340485114E+00  4.821512570935E+00  4.879370721786E+00
  4.937923170448E+00  4.997178248493E+00  5.057144387475E+00  5.117830120125E+00
  5.179244081566E+00  5.241395010545E+00  5.304291750672E+00  5.367943251680E+00
  5.432358570700E+00  5.497546873548E+00  5.563517436031E+00  5.630279645263E+00
  5.697843001006E+00  5.766217117018E+00  5.835411722423E+00  5.905436663092E+00
  5.976301903049E+00  6.048017525885E+00  6.120593736196E+00  6.194040861030E+00
  6.268369351363E+00  6.343589783579E+00  6.419712860982E+00  6.496749415314E+00
  6.574710408298E+00  6.653606933197E+00  6.733450216396E+00  6.814251618992E+00
  6.896022638420E+00  6.978774910081E+00  7.062520209002E+00  7.147270451510E+00
  7.233037696928E+00  7.319834149291E+00  7.407672159083E+00  7.496564224992E+00
  7.586522995692E+00  7.677561271640E+00  7.769692006900E+00  7.862928310983E+00
  7.957283450714E+00  8.052770852123E+00  8.149404102349E+00  8.247196951577E+00
  8.346163314996E+00  8.446317274776E+00  8.547673082073E+00  8.650245159058E+00
  8.754048100966E+00  8.859096678178E+00  8.965405838316E+00  9.072990708376E+00
  9.181866596876E+00  9.292048996039E+00  9.403553583991E+00  9.516396226999E+00
  9.630592981723E+00  9.746160097504E+00  9.863114018674E+00  9.981471386898E+00
  1.010124904354E+01  1.022246403206E+01  1.034513360045E+01  1.046927520365E+01
  1.059490650610E+01  1.072204538417E+01  1.085070992878E+01  1.098091844793E+01
  1.111268946930E+01  1.124604174293E+01  1.138099424385E+01  1.151756617477E+01
  1.165577696887E+01  1.179564629250E+01  1.193719404801E+01  1.208044037658E+01
  1.222540566110E+01  1.237211052904E+01  1.252057585538E+01  1.267082276565E+01
  1.282287263884E+01  1.297674711050E+01  1.313246807583E+01  1.329005769274E+01
  1.344953838505E+01  1.361093284567E+01  1.377426403982E+01  1.393955520830E+01
  1.410682987080E+01  1.427611182925E+01  1.444742517120E+01  1.462079427325E+01
  1.479624380453E+01  1.497379873019E+01  1.515348431495E+01  1.533532612673E+01
  1.551935004025E+01  1.570558224073E+01  1.589404922762E+01  1.608477781835E+01
  1.627779515217E+01  1.647312869400E+01  1.667080623833E+01  1.687085591319E+01
  1.707330618414E+01  1.727818585835E+01  1.748552408865E+01  1.769535037772E+01
  1.790769458225E+01  1.812258691724E+01  1.834005796024E+01  1.856013865577E+01
  1.878286031964E+01  1.900825464347E+01  1.923635369919E+01  1.946718994358E+01
  1.970079622291E+01  1.993720577758E+01  2.017645224691E+01  2.041856967388E+01
  2.066359250996E+01  2.091155562008E+01  2.116249428752E+01  2.141644421897E+01
  2.167344154960E+01  2.193352284820E+01  2.219672512237E+01  2.246308582384E+01
  2.273264285373E+01  2.300543456797E+01  2.328149978279E+01  2.356087778018E+01
  2.384360831355E+01  2.412973161331E+01  2.441928839267E+01  2.471231985338E+01
  2.500886769162E+01  2.530897410392E+01  2.561268179317E+01  2.592003397469E+01
  2.623107438238E+01  2.654584727497E+01  2.686439744227E+01  2.718677021158E+01
  2.751301145412E+01  2.784316759156E+01  2.817728560266E+01  2.851541302990E+01
  2.885759798625E+01  2.920388916209E+01  2.955433583203E+01  2.990898786202E+01
  3.026789571636E+01  3.063111046496E+01  3.099868379054E+01  3.137066799603E+01
  3.174711601198E+01  3.212808140412E+01  3.251361838097E+01  3.290378180154E+01
  3.329862718316E+01  3.369821070936E+01  3.410258923787E+01  3.451182030873E+01
  3.492596215243E+01  3.534507369826E+01  3.576921458264E+01  3.619844515763E+01
  3.663282649952E+01  3.707242041752E+01  3.751728946253E+01  3.796749693608E+01
  3.842310689931E+01  3.888418418210E+01  3.935079439229E+01  3.982300392499E+01
  4.030087997209E+01  4.078449053176E+01  4.127390441814E+01  4.176919127116E+01
  4.227042156641E+01  4.277766662521E+01  4.329099862471E+01  4.381049060821E+01
  4.433621649551E+01
</grid-data>
</grid>
<valence-charge total-charge="3" is-unscreening-charge="yes"
 rescaled-to-z-pseudo="no">
<radfunc>
<data npts="457">
  1.665416164653E-01  1.666428339442E-01  1.669551172677E-01  1.674719134036E-01
  1.681901823683E-01  1.691341791796E-01  1.703365492010E-01  1.717123458069E-01
  1.732579791567E-01  1.750586891081E-01  1.770861453571E-01  1.792871406478E-01
  1.819433953136E-01  1.847131621087E-01  1.879746881951E-01  1.912256056701E-01
  1.949611965593E-01  1.984942848597E-01  2.024570027347E-01  2.068990174820E-01
  2.118750418711E-01  2.162805328450E-01  2.210994816946E-01  2.263676281603E-01
  2.321231545208E-01  2.384067099005E-01  2.452613971102E-01  2.508044994190E-01
  2.567144488033E-01  2.630119642317E-01  2.697183853115E-01  2.768555978872E-01
  2.844459405824E-01  2.925120899588E-01  3.010769219053E-01  3.101633468750E-01
  3.197941166680E-01  3.299916006419E-01  3.371155305354E-01  3.445072329649E-01
  3.521727056461E-01  3.601176765970E-01  3.683475561647E-01  3.768673861406E-01
  3.856817860968E-01  3.947948971357E-01  4.042103233052E-01  4.139310710030E-01
  4.239594867606E-01  4.342971938750E-01  4.449450284278E-01  4.559029753007E-01
  4.671701048630E-01  4.787445110571E-01  4.906232516479E-01  5.028022914141E-01
  5.152764490502E-01  5.280393484972E-01  5.410833753321E-01  5.543996387046E-01
  5.679779391178E-01  5.818067420920E-01  5.958731574379E-01  6.101629234849E-01
  6.246603951832E-01  6.393485345209E-01  6.542089012062E-01  6.616975210179E-01
  6.692216410748E-01  6.767785559346E-01  6.843654692393E-01  6.919794926653E-01
  6.996176446553E-01  7.072768489061E-01  7.149539325860E-01  7.226456242573E-01
  7.303485514835E-01  7.380592381015E-01  7.457741011481E-01  7.534894474307E-01
  7.612014697428E-01  7.689062427293E-01  7.765997184187E-01  7.842777214450E-01
  7.919359439969E-01  7.995699405418E-01  8.071751223840E-01  8.147467521331E-01
  8.222799381688E-01  8.297696292064E-01  8.372106090782E-01  8.445974918637E-01
  8.519247175120E-01  8.591865481134E-01  8.663770649885E-01  8.734901667694E-01
  8.805195686550E-01  8.874588030236E-01  8.943012215837E-01  9.010399992371E-01
  9.076681398153E-01  9.141784838323E-01  9.205637183697E-01  9.268163891791E-01
  9.329289150451E-01  9.388936044037E-01  9.447026741561E-01  9.503482705536E-01
  9.558224919591E-01  9.611174132145E-01  9.662251112623E-01  9.711376915857E-01
  9.758473149482E-01  9.803462238279E-01  9.846267678675E-01  9.886814275895E-01
  9.925028355682E-01  9.960837942124E-01  9.994172892898E-01  1.002496498332E+00
  1.005314793093E+00  1.007865735310E+00  1.010143065114E+00  1.012140681603E+00
  1.013852615263E+00  1.015272992205E+00  1.016395990412E+00  1.017215788586E+00
  1.017726508513E+00  1.017922152288E+00  1.017796536183E+00  1.017343223369E+00
  1.016555458190E+00  1.015426105092E+00  1.013947595738E+00  1.012111888182E+00
  1.009910442243E+00  1.007334215389E+00  1.004373683450E+00  1.001018890377E+00
  9.972595308964E-01  9.930850693939E-01  9.884848975839E-01  9.834485324826E-01
  9.779658549433E-01  9.720273874928E-01  9.656246084788E-01  9.587502976389E-01
  9.513989061870E-01  9.435669424764E-01  9.352533623268E-01  9.264599513322E-01
  9.171916850106E-01  9.074570516657E-01  8.972683224370E-01  8.866414963076E-01
  8.755950839530E-01  8.641481908408E-01  8.523201321294E-01  8.401307419960E-01
  8.276001627056E-01  8.147488249223E-01  8.015973970780E-01  7.881667373192E-01
  7.744778453085E-01  7.605518139998E-01  7.464097815626E-01  7.320728836282E-01
  7.175622060344E-01  7.028987382467E-01  6.881033276297E-01  6.731966347395E-01
  6.581990897999E-01  6.431308505158E-01  6.280117613701E-01  6.128613145381E-01
  5.976986125399E-01  5.825423327457E-01  5.674106938282E-01  5.523214242522E-01
  5.372917328731E-01  5.223382817079E-01  5.074771609266E-01  4.927238661043E-01
  4.780932777583E-01  4.635996431871E-01  4.492565606159E-01  4.350769656419E-01
  4.210731199649E-01  4.072566023784E-01  3.936383019866E-01  3.802284136064E-01
  3.670364353032E-01  3.540711680047E-01  3.413407171282E-01  3.288524961515E-01
  3.166132320514E-01  3.046289725307E-01  2.929050949474E-01  2.814463168580E-01
  2.702567080834E-01  2.593397042019E-01  2.486981213737E-01  2.383341723982E-01
  2.282494839045E-01  2.184451145775E-01  2.089215743169E-01  1.996788442336E-01
  1.907163973823E-01  1.820332201365E-01  1.736278341091E-01  1.654983185268E-01
  1.576423329682E-01  1.500571403783E-01  1.427396302737E-01  1.356863420575E-01
  1.288934883755E-01  1.223569784149E-01  1.160724411011E-01  1.100352481112E-01
  1.042405366423E-01  9.868323187558E-02  9.335806907737E-02  8.825961528416E-02
  8.338229052108E-02  7.872038850606E-02  7.426809679497E-02  7.001951632956E-02
  6.596868034260E-02  6.210957259285E-02  5.843614489268E-02  5.494233390005E-02
  5.162207714800E-02  4.846932828821E-02  4.547807152811E-02  4.264233524451E-02
  3.995620475985E-02  3.741383427069E-02  3.500945792167E-02  3.273740002178E-02
  3.059208440341E-02  2.856804292846E-02  2.665992314953E-02  2.486249513776E-02
  2.317065749250E-02  2.157944255171E-02  2.008402082477E-02  1.867970467299E-02
  1.736195126550E-02  1.612636484112E-02  1.496869830868E-02  1.388485422054E-02
  1.287088515538E-02  1.192299354765E-02  1.103753100211E-02  1.021099713203E-02
  9.440037960463E-03  8.721443923212E-03  8.052147512262E-03  7.429220597582E-03
  6.849871464024E-03  6.311441599525E-03  5.811402268869E-03  5.347350906028E-03
  4.917007356544E-03  4.518209999548E-03  4.148911777209E-03  3.807176157572E-03
  3.491173054801E-03  3.199174728945E-03  2.929551685434E-03  2.680768592638E-03
  2.451380233997E-03  2.240027509447E-03  2.045433499169E-03  1.866399601063E-03
  1.701801751820E-03  1.550586739979E-03  1.411768618060E-03  1.284425219546E-03
  1.167694785366E-03  1.060772703447E-03  9.629083639416E-04  8.734021318457E-04
  7.916024379447E-04  7.169029883121E-04  6.487400919582E-04  5.865901056782E-04
  5.299669946653E-04  4.784200070397E-04  4.315314600886E-04  3.889146357075E-04
  3.502117822865E-04  3.150922200755E-04  2.832505468971E-04  2.544049409481E-04
  2.282955573341E-04  2.046830149119E-04  1.833469699767E-04  1.640847733081E-04
  1.467102070918E-04  1.310522982528E-04  1.169542047662E-04  1.042721715618E-04
  9.287455269374E-05  8.264089651550E-05  7.346109067559E-05  6.523456383189E-05
  5.786954107150E-05  5.128235011544E-05  4.539677548470E-05  4.014345790362E-05
  3.545933631828E-05  3.128713001067E-05  2.757485839305E-05  2.427539617076E-05
  2.134606166520E-05  1.874823619107E-05  1.644701248327E-05  1.441087026819E-05
  1.261137717167E-05  1.102291325086E-05  9.622417529929E-06  8.389155009101E-06
  7.304502703534E-06  6.351753352090E-06  5.515935516712E-06  4.783648870408E-06
  4.142913545836E-06  3.583032487250E-06  3.094465815958E-06  2.668716283649E-06
  2.298224948873E-06  1.976276269787E-06  1.696911860989E-06  1.454852214012E-06
  1.245425729884E-06  1.064504458226E-06  9.084459806972E-07  7.740409173993E-07
  6.584655731692E-07  5.592392766341E-07  4.741859986349E-07  4.013998681979E-07
  3.392142337865E-07  2.861739451953E-07  2.410105572519E-07  2.026201805744E-07
  1.700437270780E-07  1.424493188356E-07  1.191166483459E-07  9.942309634297E-08
  8.283143006808E-08  6.887892048619E-08  5.716773134935E-08  4.735644634447E-08
  3.915261288348E-08  3.230619246064E-08  2.660381797217E-08  2.186376802439E-08
  1.793157710118E-08  1.467620857013E-08  1.198672492846E-08  9.769396469654E-09
  7.945195734970E-09  6.447630741248E-09  5.220875088118E-09  4.218157681623E-09
  3.400379003044E-09  2.734924635596E-09  2.194650169752E-09  1.757014670729E-09
  1.403342637740E-09  1.118196841070E-09  8.888466150495E-10  7.048181364314E-10
  5.575149505584E-10  4.398985426844E-10  3.462201080635E-10  2.717958696156E-10
  2.128193425339E-10  1.662048661466E-10  1.294575285373E-10  1.005653114804E-10
  7.790989371581E-11  6.019307992658E-11  4.637628050458E-11  3.563086184790E-11
  2.729752625261E-11  2.085317135017E-11  1.588392768707E-11  1.206328494988E-11
  9.134397397779E-12  6.895811600029E-12  5.189988402861E-12  3.894099517984E-12
  2.912670168590E-12  2.171715406761E-12  1.614081254368E-12  1.195754645439E-12
  8.829499257216E-13  6.498158260724E-13  4.766365971097E-13  3.484254207993E-13
  2.538281915771E-13  1.842720407760E-13  1.333062016197E-13  9.609326280198E-14
  6.901935675561E-14  4.939282189791E-14  3.521700144339E-14  2.501593904184E-14
  1.770259928853E-14  1.247936497617E-14  8.763185474001E-15  6.129480798639E-15
  4.270265820187E-15  2.962995649502E-15  0.000000000000E+00  0.000000000000E+00
  0.000000000000E+00  0.000000000000E+00  0.000000000000E+00  0.000000000000E+00
  0.000000000000E+00  0.000000000000E+00  0.000000000000E+00  0.000000000000E+00
  0.000000000000E+00  0.000000000000E+00  0.000000000000E+00  0.000000000000E+00
  0.000000000000E+00  0.000000000000E+00  0.000000000000E+00  0.000000000000E+00
  0.000000000000E+00  0.000000000000E+00  0.000000000000E+00  0.000000000000E+00
  0.000000000000E+00  0.000000000000E+00  0.000000000000E+00  0.000000000000E+00
  0.000000000000E+00  0.000000000000E+00  0.000000000000E+00  0.000000000000E+00
  0.000000000000E+00  0.000000000000E+00  0.000000000000E+00  0.000000000000E+00
  0.000000000000E+00  0.000000000000E+00  0.000000000000E+00  0.000000000000E+00
  0.000000000000E+00
</data>
</radfunc>
</valence-charge>
<pseudocore-charge matching-radius="0.732254969646"
 number-of-continuous-derivatives="4">
<annotation model-charge-form="Teter function with specified parameters" />
<radfunc>
<data npts="290">
  2.879606586946E+00  2.879404615943E+00  2.878781413047E+00  2.877749862479E+00
  2.876315717057E+00  2.874430079188E+00  2.872027039664E+00  2.869275600348E+00
  2.866182217718E+00  2.862575266510E+00  2.858510159517E+00  2.854092321980E+00
  2.848754024357E+00  2.843179790440E+00  2.836605582533E+00  2.830041595432E+00
  2.822485120796E+00  2.815324507039E+00  2.807277082300E+00  2.798235920650E+00
  2.788081983543E+00  2.779069199072E+00  2.769185476855E+00  2.758350117172E+00
  2.746475669109E+00  2.733467521344E+00  2.719223503936E+00  2.707663524593E+00
  2.695297112697E+00  2.682072085744E+00  2.667933511153E+00  2.652823661860E+00
  2.636681990174E+00  2.619445123929E+00  2.601046889474E+00  2.581418366660E+00
  2.560487981639E+00  2.538181643981E+00  2.522508685373E+00  2.506167103369E+00
  2.489133357741E+00  2.471383582675E+00  2.452893640401E+00  2.433639182552E+00
  2.413595719891E+00  2.392738701078E+00  2.371043601141E+00  2.348486020369E+00
  2.325041794318E+00  2.300687115670E+00  2.275398668624E+00  2.249153776547E+00
  2.221930563539E+00  2.193708130552E+00  2.164466746646E+00  2.134188055869E+00
  2.102855300209E+00  2.070453558861E+00  2.036970004004E+00  2.002394173031E+00
  1.966718256993E+00  1.929937404795E+00  1.892050042347E+00  1.853058205593E+00
  1.812967885915E+00  1.771789386034E+00  1.729537684015E+00  1.708015432070E+00
  1.686232802471E+00  1.664193147121E+00  1.641900179477E+00  1.619357985936E+00
  1.596571037074E+00  1.573544198684E+00  1.550282742568E+00  1.526792357044E+00
  1.503079157088E+00  1.479149694088E+00  1.455010965124E+00  1.430670421717E+00
  1.406135977989E+00  1.381416018163E+00  1.356519403315E+00  1.331455477326E+00
  1.306234071943E+00  1.280865510865E+00  1.255360612784E+00  1.229730693282E+00
  1.203987565509E+00  1.178143539537E+00  1.152211420319E+00  1.126204504150E+00
  1.100136573532E+00  1.074021890370E+00  1.047875187389E+00  1.021711657690E+00
  9.955469423596E-01  9.693971160374E-01  9.432786703672E-01  9.172084952490E-01
  8.912038578179E-01  8.652823790841E-01  8.394620081710E-01  8.137609941004E-01
  7.881978550793E-01  7.627913452573E-01  7.375604189304E-01  7.125241921852E-01
  6.877019019856E-01  6.631128627262E-01  6.387764202873E-01  6.147119036485E-01
  5.909385741355E-01  5.674755723963E-01  5.443418632235E-01  5.215561783645E-01
  4.991369574835E-01  4.771022874650E-01  4.554698402751E-01  4.342568096221E-01
  4.134798466852E-01  3.931549952086E-01  3.732976262821E-01  3.539223731607E-01
  3.350430664977E-01  3.166726703933E-01  2.988232196848E-01  2.815057589243E-01
  2.647302835128E-01  2.485056834751E-01  2.328396903750E-01  2.177388278790E-01
  2.032083664880E-01  1.892522829519E-01  1.758732248862E-01  1.630724810939E-01
  1.508499580884E-01  1.392041632857E-01  1.281321953111E-01  1.176297418275E-01
  1.076910852524E-01  9.830911667651E-02  8.947535824518E-02  8.117999419214E-02
  7.341191064637E-02  6.615874425117E-02  5.940693954756E-02  5.314181498212E-02
  4.734763730020E-02  4.200770398375E-02  3.710443328689E-02  3.261946131516E-02
  2.853374548676E-02  2.482767360780E-02  2.148117769089E-02  1.847385154881E-02
  1.578507110505E-02  1.339411628267E-02  1.128029326416E-02  9.423055861198E-03
  7.802124694237E-03  6.397602862809E-03  5.190086787063E-03  4.160770923360E-03
  3.291545101496E-03  2.565083299834E-03  1.964922767525E-03  1.475532519864E-03
  1.082370373017E-03  7.719278464619E-04  5.317624433962E-04  3.505170184328E-04
  2.179261546342E-04  1.248096942633E-04  6.305379487631E-05  2.558010931567E-05
  6.303909156370E-06  8.218029301172E-08  2.652910602392E-06  1.056695700907E-05
  2.111401714363E-05  3.224433393831E-05  4.248782551526E-05  5.087235411692E-05
  5.684282431987E-05  6.018273145238E-05  6.093966662986E-05  5.935612740277E-05
  5.580678664502E-05  5.074314263686E-05  4.464621752812E-05  3.798769810307E-05
  3.119963172594E-05  2.465251200355E-05  1.864132387611E-05  1.337887720133E-05
  8.995551419595E-06  5.544410345350E-06  3.010532551205E-06  1.323344005675E-06
  3.707377987018E-07  1.382027167255E-08  1.012299967005E-07  4.821292221533E-07
  1.017157326214E-06  1.586850957585E-06  2.097262730342E-06  2.482735578887E-06
  2.705999232273E-06  2.755935821362E-06  2.643502446246E-06  2.396391500503E-06
  2.053050100766E-06  1.656667521661E-06  1.249677646459E-06  8.692196246869E-07
  5.438650969644E-07  2.917679440673E-07  1.202373388114E-07  2.659172577552E-08
  3.360590504489E-11  2.420327369680E-08  8.003066562828E-08  1.485103013953E-07
  2.130720760530E-07  2.613028703300E-07  2.858792273816E-07  2.846858143839E-07
  2.602033246724E-07  2.183391742816E-07  1.669339079309E-07  1.141990457340E-07
  6.732679612854E-08  3.146271578301E-08  9.157993569448E-09  3.311291619373E-10
  0.000000000000E+00  0.000000000000E+00  0.000000000000E+00  0.000000000000E+00
  0.000000000000E+00  0.000000000000E+00  0.000000000000E+00  0.000000000000E+00
  0.000000000000E+00  0.000000000000E+00  0.000000000000E+00  0.000000000000E+00
  0.000000000000E+00  0.000000000000E+00  0.000000000000E+00  0.000000000000E+00
  0.000000000000E+00  0.000000000000E+00  0.000000000000E+00  0.000000000000E+00
  0.000000000000E+00  0.000000000000E+00  0.000000000000E+00  0.000000000000E+00
  0.000000000000E+00  0.000000000000E+00  0.000000000000E+00  0.000000000000E+00
  0.000000000000E+00  0.000000000000E+00  0.000000000000E+00  0.000000000000E+00
  0.000000000000E+00  0.000000000000E+00  0.000000000000E+00  0.000000000000E+00
  0.000000000000E+00  0.000000000000E+00  0.000000000000E+00  0.000000000000E+00
  0.000000000000E+00  0.000000000000E+00  0.000000000000E+00  0.000000000000E+00
  0.000000000000E+00  0.000000000000E+00  0.000000000000E+00  0.000000000000E+00
  0.000000000000E+00  0.000000000000E+00  0.000000000000E+00  0.000000000000E+00
  0.000000000000E+00  0.000000000000E+00
</data>
</radfunc>
</pseudocore-charge>
<semilocal-potentials set="scalar_relativistic">
<slps n="2" l="s" rc="1.20849220363" eref="-0.347026605916">
<radfunc>
<data npts="290">
  7.790616016183E+00  7.788599439764E+00  7.782380799836E+00  7.772099785441E+00
  7.757831776515E+00  7.739116973850E+00  7.715340843365E+00  7.688218759938E+00
  7.657854343101E+00  7.622619346636E+00  7.583127471050E+00  7.540469716424E+00
  7.489283639028E+00  7.436251222039E+00  7.374245511542E+00  7.312912999843E+00
  7.243011599170E+00  7.177459145407E+00  7.104575157997E+00  7.023669815234E+00
  6.934021043451E+00  6.855505300131E+00  6.770525833138E+00  6.678690395311E+00
  6.579609544856E+00  6.472902537140E+00  6.358204148706E+00  6.266729187104E+00
  6.170433124133E+00  6.069195252191E+00  5.962909371820E+00  5.851486117248E+00
  5.734855280681E+00  5.612968069638E+00  5.485799217791E+00  5.353348855626E+00
  5.215644033351E+00  5.072739775922E+00  4.974621741835E+00  4.874261073874E+00
  4.771694936210E+00  4.666965728227E+00  4.560120779912E+00  4.451211949502E+00
  4.340295118314E+00  4.227429579359E+00  4.112677318434E+00  3.996102189023E+00
  3.877768985510E+00  3.757742422985E+00  3.636086036296E+00  3.512861015996E+00
  3.388125004399E+00  3.261930881111E+00  3.134325573942E+00  3.005348938009E+00
  2.875032752893E+00  2.743399894543E+00  2.610463745185E+00  2.476227910061E+00
  2.340686314223E+00  2.203823755118E+00  2.065616986726E+00  1.926036408029E+00
  1.785048421570E+00  1.642618516517E+00  1.498715113775E+00  1.426202905612E+00
  1.353314188101E+00  1.280048022048E+00  1.206404653164E+00  1.132385718158E+00
  1.057994459689E+00  9.832359489641E-01  9.081173146046E-01  8.326479761454E-01
  7.568398802972E-01  6.807077378866E-01  6.042692591757E-01  5.275453849434E-01
  4.505605105906E-01  3.733427001714E-01  2.959238871974E-01  2.183400586740E-01
  1.406314188041E-01  6.284252849511E-02 -1.497758304612E-02 -9.277533913220E-02
 -1.704925721382E-01 -2.480665206700E-01 -3.254298707451E-01 -4.025108452675E-01
 -4.792333453719E-01 -5.555171472065E-01 -6.312781572466E-01 -7.064287289469E-01
 -7.808780428771E-01 -8.545325520153E-01 -9.272964930809E-01 -9.990724639441E-01
 -1.069762066331E+00 -1.139266611863E+00 -1.207487888459E+00 -1.274328982744E+00
 -1.339695152887E+00 -1.403494744777E+00 -1.465640142902E+00 -1.526048745844E+00
 -1.584643954515E+00 -1.641356159806E+00 -1.696123714516E+00 -1.748893873043E+00
 -1.799623680711E+00 -1.848280793271E+00 -1.894844206058E+00 -1.939304871177E+00
 -1.981666180640E+00 -2.021944292876E+00 -2.060168280295E+00 -2.096380076000E+00
 -2.130634198765E+00 -2.162997236981E+00 -2.193547074286E+00 -2.222371842244E+00
 -2.249568588777E+00 -2.275241654848E+00 -2.299500756579E+00 -2.322458775297E+00
 -2.344229264305E+00 -2.364923688456E+00 -2.384648421080E+00 -2.403501532758E+00
 -2.421569417766E+00 -2.438923317043E+00 -2.455615810809E+00 -2.471677369449E+00
 -2.487113066947E+00 -2.501899576171E+00 -2.515982578363E+00 -2.529274728472E+00
 -2.541654322103E+00 -2.552964807071E+00 -2.563015271650E+00 -2.571582021741E+00
 -2.578411330106E+00 -2.583223402885E+00 -2.585717562865E+00 -2.585578597070E+00
 -2.582484160410E+00 -2.576113070140E+00 -2.566154270877E+00 -2.552316200198E+00
 -2.534336243520E+00 -2.511991005015E+00 -2.485093663403E+00 -2.456012360000E+00
 -2.427218626492E+00 -2.398680414258E+00 -2.370419019987E+00 -2.342423349750E+00
 -2.314696123774E+00 -2.287238279517E+00 -2.260051706239E+00 -2.233138858424E+00