<?xml version="1.0" encoding="UTF-8" ?>
<psml version="1.1" energy_unit="hartree" length_unit="bohr"
 uuid="d1d5bac0-be6c-11e7-557f-198d7effe26c"
 xmlns="http://esl.cecam.org/PSML/ns/1.1">
<provenance creator="ONCVPSP-3.3.0+psml-3.3.0-73 (scalar-relativistic)"
 date="2017-10-31">
<annotation action="semilocal-pseudopotential-generation"
 action-cont="projectors-generation" />
<input-file name="oncvpsp-input">
<![CDATA[# atsym z nc nv iexc psfile
Cs 55 9 3 4 upf
# n l f
1 0 2.0
2 0 2.0
2 1 6.0
3 0 2.0
3 1 6.0
3 2 10.0
4 0 2.0
4 1 6.0
4 2 10.0
5 0 2.0
5 1 6.0
6 0 1.0
# lmax
3
# l rc ep ncon nbas qcut
0 2.25 0.0 4 7 4.8
1 1.85 0.0 4 7 6.0
2 2.0 0.0 4 8 6.2
3 1.9 0.05 4 7 8.8
# lloc lpopt rc5 dvloc0
4 5 1.85 0.0
# l nproj debl
0 2 1.0
1 2 5.0
2 2 5.0
3 2 2.0
# icmod fcfact rcfact
3 5.0 1.4
# epsh1 epsh2 depsh
-12.0 12.0 0.02
# rlmax drl
6.0 0.01
 0
]]>
</input-file>
</provenance>
<pseudo-atom-spec atomic-label="Cs" atomic-number="55" z-pseudo="9"
 flavor="Hamann&apos;s oncvpsp" relativity="scalar" spin-dft="no"
 core-corrections="yes">
<annotation pseudo-energy="-20.4111324324" />
<exchange-correlation>
<annotation oncvpsp-xc-code="4" oncvpsp-xc-type="GGA -- Perdew-Burke-Ernzerhof" />
<libxc-info number-of-functionals="2">
<functional name="Perdew, Burke &amp; Ernzerhof (GGA)" type="exchange" id="101" />
<functional name="Perdew, Burke &amp; Ernzerhof (GGA)" type="correlation"
 id="130" />
</libxc-info>
</exchange-correlation>
<valence-configuration total-valence-charge="9">
<shell n="5" l="s" occupation="2" />
<shell n="5" l="p" occupation="6" />
<shell n="6" l="s" occupation="1" />
</valence-configuration>
</pseudo-atom-spec>
<grid npts="457">
<annotation type="sampled from oncvpsp log grid"
 recipe="r(i:1..N) = r1*exp(a*(i-1)) + r=0; resampled"
 recipe-cont="r1: scale; a: step" scale="0.909090909091E-05"
 step="0.119285708653E-01" delta="0.500000000000E-02" rmax="44.3250217340" />
<grid-data>
  0.000000000000E+00  5.001478766148E-03  1.010994206942E-02  1.516652523997E-02
  2.019381588391E-02  2.533075473382E-02  3.065747126796E-02  3.579999718257E-02
  4.081958922404E-02  4.599109555586E-02  5.120334903089E-02  5.633035232730E-02
  6.197072366114E-02  6.736745720739E-02  7.323416643326E-02  7.866776607706E-02
  8.450451095384E-02  8.969793712724E-02  9.521053768690E-02  1.010619282556E-01
  1.072729299810E-01  1.125154581265E-01  1.180141935123E-01  1.237816572254E-01
  1.298309822696E-01  1.361759434711E-01  1.428309888448E-01  1.480348542423E-01
  1.534283158563E-01  1.590182813837E-01  1.648119101947E-01  1.708166225019E-01
  1.770401088640E-01  1.834903400354E-01  1.901755771749E-01  1.971043824259E-01
  2.042856298828E-01  2.117285169563E-01  2.168404902697E-01  2.220758870668E-01
  2.274376872841E-01  2.329289428059E-01  2.385527792010E-01  2.443123975020E-01
  2.502110760273E-01  2.562521722469E-01  2.624391246936E-01  2.687754549202E-01
  2.752647695038E-01  2.819107620987E-01  2.887172155388E-01  2.956880039908E-01
  3.028270951592E-01  3.101385525447E-01  3.176265377573E-01  3.252953128849E-01
  3.331492429192E-01  3.411927982403E-01  3.494305571610E-01  3.578672085331E-01
  3.665075544159E-01  3.753565128097E-01  3.844191204550E-01  3.937005356993E-01
  4.032060414332E-01  4.129410480976E-01  4.229110967628E-01  4.279860299240E-01
  4.331218622831E-01  4.383193246305E-01  4.435791565260E-01  4.489021064043E-01
  4.542889316812E-01  4.597403988614E-01  4.652572836477E-01  4.708403710515E-01
  4.764904555041E-01  4.822083409701E-01  4.879948410618E-01  4.938507791545E-01
  4.997769885044E-01  5.057743123664E-01  5.118436041148E-01  5.179857273642E-01
  5.242015560926E-01  5.304919747657E-01  5.368578784629E-01  5.433001730044E-01
  5.498197750805E-01  5.564176123815E-01  5.630946237300E-01  5.698517592148E-01
  5.766899803254E-01  5.836102600893E-01  5.906135832103E-01  5.977009462089E-01
  6.048733575634E-01  6.121318378541E-01  6.194774199084E-01  6.269111489473E-01
  6.344340827347E-01  6.420472917275E-01  6.497518592282E-01  6.575488815389E-01
  6.654394681174E-01  6.734247417348E-01  6.815058386356E-01  6.896839086993E-01
  6.979601156037E-01  7.063356369909E-01  7.148116646348E-01  7.233894046104E-01
  7.320700774657E-01  7.408549183953E-01  7.497451774161E-01  7.587421195451E-01
  7.678470249796E-01  7.770611892794E-01  7.863859235507E-01  7.958225546333E-01
  8.053724252889E-01  8.150368943924E-01  8.248173371251E-01  8.347151451706E-01
  8.447317269126E-01  8.548685076356E-01  8.651269297272E-01  8.755084528839E-01
  8.860145543186E-01  8.966467289704E-01  9.074064897180E-01  9.182953675946E-01
  9.293149120058E-01  9.404666909498E-01  9.517522912412E-01  9.631733187361E-01
  9.747313985610E-01  9.864281753437E-01  9.982653134478E-01  1.010244497209E+00
  1.022367431176E+00  1.034635840350E+00  1.047051470434E+00  1.059616088079E+00
  1.072331481136E+00  1.085199458910E+00  1.098221852417E+00  1.111400514646E+00
  1.124737320821E+00  1.138234168671E+00  1.151892978695E+00  1.165715694440E+00
  1.179704282773E+00  1.193860734166E+00  1.208187062976E+00  1.222685307732E+00
  1.237357531425E+00  1.252205821802E+00  1.267232291663E+00  1.282439079163E+00
  1.297828348113E+00  1.313402288291E+00  1.329163115750E+00  1.345113073139E+00
  1.361254430017E+00  1.377589483177E+00  1.394120556975E+00  1.410850003659E+00
  1.427780203703E+00  1.444913566147E+00  1.462252528941E+00  1.479799559288E+00
  1.497557154000E+00  1.515527839848E+00  1.533714173926E+00  1.552118744013E+00
  1.570744168941E+00  1.589593098969E+00  1.608668216156E+00  1.627972234750E+00
  1.647507901567E+00  1.667277996386E+00  1.687285332343E+00  1.707532756331E+00
  1.728023149407E+00  1.748759427199E+00  1.769744540326E+00  1.790981474810E+00
  1.812473252507E+00  1.834222931538E+00  1.856233606716E+00  1.878508409997E+00
  1.901050510917E+00  1.923863117048E+00  1.946949474452E+00  1.970312868146E+00
  1.993956622563E+00  2.017884102034E+00  2.042098711258E+00  2.066603895794E+00
  2.091403142543E+00  2.116499980254E+00  2.141897980017E+00  2.167600755777E+00
  2.193611964846E+00  2.219935308424E+00  2.246574532125E+00  2.273533426511E+00
  2.300815827629E+00  2.328425617561E+00  2.356366724971E+00  2.384643125671E+00
  2.413258843179E+00  2.442217949297E+00  2.471524564689E+00  2.501182859465E+00
  2.531197053779E+00  2.561571418424E+00  2.592310275445E+00  2.623417998750E+00
  2.654899014735E+00  2.686757802912E+00  2.718998896547E+00  2.751626883306E+00
  2.784646405905E+00  2.818062162776E+00  2.851878908730E+00  2.886101455634E+00
  2.920734673102E+00  2.955783489179E+00  2.991252891049E+00  3.027147925742E+00
  3.063473700851E+00  3.100235385261E+00  3.137438209884E+00  3.175087468403E+00
  3.213188518024E+00  3.251746780240E+00  3.290767741603E+00  3.330256954502E+00
  3.370220037956E+00  3.410662678412E+00  3.451590630552E+00  3.493009718119E+00
  3.534925834737E+00  3.577344944753E+00  3.620273084090E+00  3.663716361099E+00
  3.707680957433E+00  3.752173128922E+00  3.797199206469E+00  3.842765596947E+00
  3.888878784110E+00  3.935545329519E+00  3.982771873473E+00  4.030565135955E+00
  4.078931917587E+00  4.127879100598E+00  4.177413649805E+00  4.227542613602E+00
  4.278273124966E+00  4.329612402465E+00  4.381567751295E+00  4.434146564310E+00
  4.487356323082E+00  4.541204598959E+00  4.595699054147E+00  4.650847442796E+00
  4.706657612110E+00  4.763137503455E+00  4.820295153497E+00  4.878138695339E+00
  4.936676359683E+00  4.995916475999E+00  5.055867473711E+00  5.116537883395E+00
  5.177936337996E+00  5.240071574052E+00  5.302952432941E+00  5.366587862136E+00
  5.430986916482E+00  5.496158759479E+00  5.562112664593E+00  5.628858016568E+00
  5.696404312767E+00  5.764761164520E+00  5.833938298495E+00  5.903945558077E+00
  5.974792904773E+00  6.046490419631E+00  6.119048304666E+00  6.192476884322E+00
  6.266786606934E+00  6.341988046217E+00  6.418091902772E+00  6.495109005605E+00
  6.573050313673E+00  6.651926917437E+00  6.731750040446E+00  6.812531040931E+00
  6.894281413422E+00  6.977012790383E+00  7.060736943868E+00  7.145465787194E+00
  7.231211376641E+00  7.317985913161E+00  7.405801744118E+00  7.494671365048E+00
  7.584607421428E+00  7.675622710486E+00  7.767730183011E+00  7.860942945208E+00
  7.955274260550E+00  8.050737551677E+00  8.147346402297E+00  8.245114559124E+00
  8.344055933834E+00  8.444184605040E+00  8.545514820300E+00  8.648060998144E+00
  8.751837730122E+00  8.856859782883E+00  8.963142100278E+00  9.070699805481E+00
  9.179548203147E+00  9.289702781585E+00  9.401179214964E+00  9.513993365543E+00
  9.628161285930E+00  9.743699221361E+00  9.860623612017E+00  9.978951095361E+00
  1.009869850851E+01  1.021988289061E+01  1.034252148530E+01  1.046663174312E+01
  1.059223132404E+01  1.071933809992E+01  1.084797015712E+01  1.097814579901E+01
  1.110988354860E+01  1.124320215118E+01  1.137812057699E+01  1.151465802392E+01
  1.165283392021E+01  1.179266792725E+01  1.193417994237E+01  1.207739010168E+01
  1.222231878290E+01  1.236898660830E+01  1.251741444760E+01  1.266762342097E+01
  1.281963490202E+01  1.297347052084E+01  1.312915216710E+01  1.328670199310E+01
  1.344614241702E+01  1.360749612602E+01  1.377078607953E+01  1.393603551249E+01
  1.410326793864E+01  1.427250715390E+01  1.444377723975E+01  1.461710256663E+01
  1.479250779743E+01  1.497001789099E+01  1.514965810569E+01  1.533145400295E+01
  1.551543145099E+01  1.570161662840E+01  1.589003602794E+01  1.608071646028E+01
  1.627368505780E+01  1.646896927849E+01  1.666659690984E+01  1.686659607275E+01
  1.706899522563E+01  1.727382316834E+01  1.748110904636E+01  1.769088235491E+01
  1.790317294317E+01  1.811801101849E+01  1.833542715071E+01  1.855545227652E+01
  1.877811770384E+01  1.900345511628E+01  1.923149657768E+01  1.946227453661E+01
  1.969582183105E+01  1.993217169302E+01  2.017135775334E+01  2.041341404638E+01
  2.065837501494E+01  2.090627551511E+01  2.115715082130E+01  2.141103663115E+01
  2.166796907073E+01  2.192798469957E+01  2.219112051597E+01  2.245741396216E+01
  2.272690292971E+01  2.299962576486E+01  2.327562127404E+01  2.355492872933E+01
  2.383758787408E+01  2.412363892857E+01  2.441312259571E+01  2.470608006686E+01
  2.500255302766E+01  2.530258366400E+01  2.560621466796E+01  2.591348924398E+01
  2.622445111491E+01  2.653914452829E+01  2.685761426263E+01  2.717990563378E+01
  2.750606450138E+01  2.783613727540E+01  2.817017092270E+01  2.850821297378E+01
  2.885031152946E+01  2.919651526782E+01  2.954687345103E+01  2.990143593244E+01
  3.026025316363E+01  3.062337620160E+01  3.099085671601E+01  3.136274699661E+01
  3.173909996057E+01  3.211996916009E+01  3.250540879001E+01  3.289547369549E+01
  3.329021937984E+01  3.368970201240E+01  3.409397843655E+01  3.450310617779E+01
  3.491714345192E+01  3.533614917334E+01  3.576018296342E+01  3.618930515898E+01
  3.662357682089E+01  3.706305974274E+01  3.750781645965E+01  3.795791025717E+01
  3.841340518026E+01  3.887436604242E+01  3.934085843493E+01  3.981294873615E+01
  4.029070412098E+01  4.077419257043E+01  4.126348288128E+01  4.175864467585E+01
  4.225974841196E+01  4.276686539291E+01  4.328006777762E+01  4.379942859095E+01
  4.432502173405E+01
</grid-data>
</grid>
<valence-charge total-charge="9" is-unscreening-charge="yes"
 rescaled-to-z-pseudo="no">
<radfunc>
<data npts="457">
  3.695175192653E-02  3.696555846807E-02  3.700818192468E-02  3.707880722895E-02
  3.717714817488E-02  3.730671772442E-02  3.747228399181E-02  3.766246681909E-02
  3.787706758060E-02  3.812834537159E-02  3.841289794256E-02  3.872377798624E-02
  3.910171376915E-02  3.949903206307E-02  3.997116111816E-02  4.044639368852E-02
  4.099825863863E-02  4.152595924730E-02  4.212456135108E-02  4.280413478046E-02
  4.357631667040E-02  4.426972932897E-02  4.503888481870E-02  4.589268835852E-02
  4.684121241624E-02  4.789587069555E-02  4.906962123280E-02  5.003688079006E-02
  5.108634306503E-02  5.222569863268E-02  5.346344961133E-02  5.480900584655E-02
  5.627279345433E-02  5.786637735452E-02  5.960259963129E-02  6.149573578282E-02
  6.356167116983E-02  6.581810024037E-02  6.743786738272E-02  6.915741849810E-02
  7.098364065918E-02  7.292394899202E-02  7.498632986646E-02  7.717938761183E-02
  7.951239501345E-02  8.199534785477E-02  8.463902377945E-02  8.745504575387E-02
  9.045595041461E-02  9.365526158586E-02  9.706756924701E-02  1.007086142212E-01
  1.045953788380E-01  1.087461837970E-01  1.131807914245E-01  1.179205154621E-01
  1.229883374664E-01  1.284090298106E-01  1.342092851767E-01  1.404178522970E-01
  1.470656775406E-01  1.541860517487E-01  1.618147614856E-01  1.699902435931E-01
  1.787537416023E-01  1.881494621649E-01  1.982247292102E-01  2.035328706117E-01
  2.090301329992E-01  2.147233735854E-01  2.206196706365E-01  2.267263270972E-01
  2.330508738987E-01  2.396010729043E-01  2.463849194387E-01  2.534106443480E-01
  2.606867155293E-01  2.682218388661E-01  2.760249585004E-01  2.841052563668E-01
  2.924721509111E-01  3.011352949057E-01  3.101045722752E-01  3.193900938332E-01
  3.290021918302E-01  3.389514132039E-01  3.492485114188E-01  3.599044367741E-01
  3.709303250537E-01  3.823374843869E-01  3.941373801799E-01  4.063416179747E-01
  4.189619240839E-01  4.320101238473E-01  4.454981173483E-01  4.594378524254E-01
  4.738412948079E-01  4.887203952054E-01  5.040870531729E-01  5.199530775761E-01
  5.363301434788E-01  5.532297452751E-01  5.706631458923E-01  5.886413218934E-01
  6.071749043141E-01  6.262741150765E-01  6.459486988332E-01  6.662078501058E-01
  6.870601355998E-01  7.085134115934E-01  7.305747363234E-01  7.532502773127E-01
  7.765452136157E-01  8.004636329908E-01  8.250084240474E-01  8.501811634569E-01
  8.759819983639E-01  9.024095241901E-01  9.294606580774E-01  9.571305082824E-01
  9.854122399060E-01  1.014296937413E+00  1.043773464480E+00  1.073828321803E+00
  1.104445503571E+00  1.135606353437E+00  1.167289420888E+00  1.199470319064E+00
  1.232121585146E+00  1.265212544571E+00  1.298709180463E+00  1.332574009745E+00
  1.366765967564E+00  1.401240301745E+00  1.435948479117E+00  1.470838105660E+00
  1.505852862526E+00  1.540932460067E+00  1.576012612096E+00  1.611025032661E+00
  1.645897457644E+00  1.680553693546E+00  1.714913695774E+00  1.748893678753E+00
  1.782406260082E+00  1.815360640853E+00  1.847662824136E+00  1.879215873375E+00
  1.909920212276E+00  1.939673967397E+00  1.968373354364E+00  1.995913108204E+00
  2.022186957818E+00  2.047088144117E+00  2.070509980764E+00  2.092346455830E+00
  2.112492871993E+00  2.130846522195E+00  2.147307396912E+00  2.161778918381E+00
  2.174168696369E+00  2.184389299219E+00  2.192359033139E+00  2.198002721944E+00
  2.201252478741E+00  2.202048460403E+00  2.200339595162E+00  2.196084273198E+00
  2.189250989842E+00  2.179818930877E+00  2.167778489493E+00  2.153131704745E+00
  2.135892611833E+00  2.116087495281E+00  2.093755037053E+00  2.068946352883E+00
  2.041724911528E+00  2.012166333377E+00  1.980358066712E+00  1.946398941986E+00
  1.910398606697E+00  1.872476845707E+00  1.832762794199E+00  1.791394052720E+00
  1.748515715999E+00  1.704279329205E+00  1.658841787137E+00  1.612364193285E+00
  1.565010696807E+00  1.516947326124E+00  1.468340837999E+00  1.419357333142E+00
  1.370159833926E+00  1.320905414480E+00  1.271744152713E+00  1.222818855205E+00
  1.174264318187E+00  1.126206871007E+00  1.078763970744E+00  1.032043886073E+00
  9.861454691459E-01  9.411580161512E-01  8.971612162048E-01  8.542251870295E-01
  8.124105947560E-01  7.717688540530E-01  7.323424037424E-01  6.941650520962E-01
  6.572624755561E-01  6.216531209202E-01  5.873493221792E-01  5.543576553487E-01
  5.226793077169E-01  4.923104451571E-01  4.632425822838E-01  4.354629514760E-01
  4.089548688027E-01  3.836980948058E-01  3.596691883448E-01  3.368418517653E-01
  3.151872661683E-01  2.946744153275E-01  2.752703972611E-01  2.569407225171E-01
  2.396495983992E-01  2.233601985009E-01  2.080349170446E-01  1.936356076491E-01
  1.801238062610E-01  1.674609380960E-01  1.556085085397E-01  1.445282780549E-01
  1.341824212390E-01  1.245336702636E-01  1.155454430167E-01  1.071819563502E-01
  9.940832491064E-02  9.219064610387E-02  8.549607180943E-02  7.929286751382E-02
  7.355045958184E-02  6.823947142115E-02  6.333174932322E-02  5.880037878004E-02
  5.461969208186E-02  5.076526799683E-02  4.721392431876E-02  4.394370404575E-02
  4.093385592116E-02  3.816481003013E-02  3.561814910230E-02  3.327657612542E-02
  3.112387882760E-02  2.914489154059E-02  2.732545491507E-02  2.565237392291E-02
  2.411337455435E-02  2.269705960013E-02  2.139286390098E-02  2.019100944791E-02
  1.908246072365E-02  1.805888068323E-02  1.711258777168E-02  1.623651436268E-02
  1.542416696380E-02  1.466958846808E-02  1.396732263819E-02  1.331238089432E-02
  1.270021135654E-02  1.212666998179E-02  1.158799355556E-02  1.108077425857E-02
  1.060193553371E-02  1.014870902092E-02  9.718612393044E-03  9.309427998860E-03
  8.919182284343E-03  8.546126011892E-03  8.188715325162E-03  7.845593715902E-03
  7.515574942871E-03  7.197626936681E-03  6.890856703298E-03  6.594496217015E-03
  6.307889273829E-03  6.030479260251E-03  5.761797781660E-03  5.501454088835E-03
  5.249125241177E-03  5.004546949897E-03  4.767505053173E-03  4.537827586701E-03
  4.315377425702E-03  4.100045486555E-03  3.891744486427E-03  3.690403266189E-03
  3.495961685021E-03  3.308366094142E-03  3.127565392675E-03  2.953507661433E-03
  2.786137361726E-03  2.625393077023E-03  2.471205766658E-03  2.323497493384E-03
  2.182180580920E-03  2.047157156488E-03  1.918319016285E-03  1.795547790431E-03
  1.678715333452E-03  1.567684307944E-03  1.462308916897E-03  1.362435746563E-03
  1.267904685934E-03  1.178549893122E-03  1.094200783087E-03  1.014683015115E-03
  9.398194621949E-04  8.694311477777E-04  8.033381385520E-04  7.413603845436E-04
  6.833185002984E-04  6.290344829825E-04  5.783323650435E-04  5.310388005942E-04
  4.869835859582E-04  4.460001158576E-04  4.079257775629E-04  3.726022859739E-04
  3.398759630898E-04  3.095979656620E-04  2.816244650345E-04  2.558167832700E-04
  2.320414896577E-04  2.101704616116E-04  1.900809138134E-04  1.716553992443E-04
  1.547817854985E-04  1.393532094920E-04  1.252680133880E-04  1.124296642597E-04
  1.007466597204E-04  9.013242147659E-05  8.050517850121E-05  7.178784130293E-05
  6.390786856659E-05  5.679712727935E-05  5.039174732327E-05  4.463197141285E-05
  3.946200118032E-05  3.482984015800E-05  3.068713437223E-05  2.698901124173E-05
  2.369391746074E-05  2.076345653976E-05  1.816222666991E-05  1.585765956826E-05
  1.381986094891E-05  1.202145324560E-05  1.043742118592E-05  9.044960784647E-06
  7.823332283482E-06  6.753717518523E-06  5.819082144834E-06  5.004043091554E-06
  4.294741561866E-06  3.678721831385E-06  3.144816037388E-06  2.683035091002E-06
  2.284465786190E-06  1.941174123962E-06  1.646114818622E-06  1.393046905637E-06
  1.176455328254E-06  9.914783427610E-07  8.338405502379E-07  6.997913359850E-07
  5.860484762350E-07  4.897466552348E-07  4.083906238955E-07  3.398127236903E-07
  2.821344959019E-07  2.337320962814E-07  1.932052382410E-07  1.593493934355E-07
  1.311309865645E-07  1.076653310447E-07  8.819706347691E-08  7.208284720690E-08
  5.877612843442E-08  4.781374196807E-08  3.880417760103E-08  3.141733197183E-08
  2.537558448903E-08  2.044604928031E-08  1.643386805022E-08  1.317642109588E-08
  1.053834546190E-08  8.407260261853E-09  6.690109519930E-09  5.310042476698E-09
  4.203760154108E-09  3.319265096409E-09  2.613958614430E-09  2.053036587020E-09
  1.608140947681E-09  1.256229443027E-09  9.786311318938E-10  7.602594407296E-10
  5.889584437764E-10  4.549614368840E-10  3.504438620556E-10  2.691552550453E-10
  2.061171677687E-10  1.573759961301E-10  1.198013549298E-10  9.092211530389E-11
  6.879348464163E-11  5.188958971170E-11  3.901694398722E-11  2.924496078157E-11
  2.185033349638E-11  1.627265969069E-11  1.207915154985E-11  8.936664643325E-12
  6.589600986345E-12  4.842511270605E-12  3.546443302210E-12  2.588266599155E-12
  1.882353131021E-12  1.364116780237E-12  9.850139065858E-13  7.086883356731E-13
  5.080094836169E-13  3.628049589865E-13  2.581311771371E-13  1.829592195784E-13
  1.291799780121E-13  9.085386448117E-14  6.364713448779E-14  4.441004956775E-14
  3.086242494173E-14  2.136015460938E-14  1.472255535310E-14  1.010520415437E-14
  6.906665815034E-15  4.700362346655E-15  3.185015834129E-15  2.148754286211E-15
  1.443225141936E-15  9.650072588468E-16  6.423222093045E-16  4.255765698794E-16
  2.806602474732E-16  0.000000000000E+00  0.000000000000E+00  0.000000000000E+00
  0.000000000000E+00
</data>
</radfunc>
</valence-charge>
<pseudocore-charge matching-radius="1.32916311575"
 number-of-continuous-derivatives="4">
<annotation model-charge-form="Teter function with specified parameters" />
<radfunc>
<data npts="290">
  1.171251700399E+01  1.171224967601E+01  1.171142473260E+01  1.171005900505E+01
  1.170815974565E+01  1.170566165771E+01  1.170247661667E+01  1.169882773086E+01
  1.169472272826E+01  1.168993267014E+01  1.168452960506E+01  1.167865220703E+01
  1.167154257428E+01  1.166410972825E+01  1.165533164512E+01  1.164655437529E+01
  1.163643402268E+01  1.162682803389E+01  1.161601394181E+01  1.160384107742E+01
  1.159014032255E+01  1.157795288883E+01  1.156455898781E+01  1.154984071379E+01
  1.153366895893E+01  1.151590241670E+01  1.149638651120E+01  1.148050047914E+01
  1.146345868460E+01  1.144517886553E+01  1.142557318525E+01  1.140454789832E+01
  1.138200300329E+01  1.135783188322E+01  1.133192093489E+01  1.130414918814E+01
  1.127438791706E+01  1.124250024529E+01  1.121998901291E+01  1.119642298316E+01
  1.117175505561E+01  1.114593625945E+01  1.111891570310E+01  1.109064052530E+01
  1.106105584784E+01  1.103010473044E+01  1.099772812842E+01  1.096386485352E+01
  1.092845153852E+01  1.089142260642E+01  1.085271024484E+01  1.081224438642E+01
  1.076995269624E+01  1.072576056702E+01  1.067959112340E+01  1.063136523624E+01
  1.058100154831E+01  1.052841651269E+01  1.047352444534E+01  1.041623759338E+01
  1.035646622085E+01  1.029411871370E+01  1.022910170588E+01  1.016132022876E+01
  1.009067788590E+01  1.001707705554E+01  9.940419123190E+00  9.900912719872E+00
  9.860604746941E+00  9.819482722301E+00  9.777534158022E+00  9.734746571859E+00
  9.691107499422E+00  9.646604507042E+00  9.601225205334E+00  9.554957263491E+00
  9.507788424327E+00  9.459706520098E+00  9.410699489114E+00  9.360755393176E+00
  9.309862435848E+00  9.258008981593E+00  9.205183575797E+00  9.151374965695E+00
  9.096572122217E+00  9.040764262784E+00  8.983940875064E+00  8.926091741703E+00
  8.867206966055E+00  8.807276998915E+00  8.746292666279E+00  8.684245198128E+00
  8.621126258259E+00  8.556927975156E+00  8.491642973918E+00  8.425264409227E+00
  8.357785999376E+00  8.289202061335E+00  8.219507546850E+00  8.148698079571E+00
  8.076769993174E+00  8.003720370475E+00  7.929547083496E+00  7.854248834461E+00
  7.777825197675E+00  7.700276662248E+00  7.621604675622E+00  7.541811687825E+00
  7.460901196413E+00  7.378877792011E+00  7.295747204379E+00  7.211516348923E+00
  7.126193373542E+00  7.039787705721E+00  6.952310099741E+00  6.863772683887E+00
  6.774189007529E+00  6.683574087902E+00  6.591944456470E+00  6.499318204655E+00
  6.405715028799E+00  6.311156274129E+00  6.215664977544E+00  6.119265908992E+00
  6.021985611214E+00  5.923852437613E+00  5.824896587988E+00  5.725150141864E+00
  5.624647089145E+00  5.523423357787E+00  5.421516838195E+00  5.318967404020E+00
  5.215816929035E+00  5.112109299746E+00  5.007890423398E+00  4.903208231019E+00
  4.798112675135E+00  4.692655721798E+00  4.586891336546E+00  4.480875463928E+00
  4.374666000215E+00  4.268322758928E+00  4.161907428816E+00  4.055483523916E+00
  3.949116325352E+00  3.842872814535E+00  3.736821597429E+00  3.631032819602E+00
  3.525578071772E+00  3.420530285594E+00  3.315963619491E+00  3.211953334321E+00
  3.108575658771E+00  3.005907644366E+00  2.904027010062E+00  2.803011976448E+00
  2.702941089617E+00  2.603893034883E+00  2.505946440542E+00  2.409179671987E+00
  2.313670616568E+00  2.219496459654E+00  2.126733452481E+00  2.035456672435E+00
  1.945739776549E+00  1.857654749070E+00  1.771271644091E+00  1.686658324325E+00
  1.603880197215E+00  1.522999949702E+00  1.444077283059E+00  1.367168649316E+00
  1.292326990903E+00  1.219601485243E+00  1.149037296098E+00  1.080675333573E+00
  1.014552024749E+00  9.506990969593E-01  8.891433757971E-01  8.299065999427E-01
  7.730052549225E-01  7.184504278990E-01  6.662476855546E-01  6.163969770763E-01
  5.688925641639E-01  5.237229798706E-01  4.808710179480E-01  4.403137541912E-01
  4.020226010821E-01  3.659633967927E-01  3.320965293485E-01  3.003770964535E-01
  2.707551011587E-01  2.431756832007E-01  2.175793854620E-01  1.939024546070E-01
  1.720771745307E-01  1.520322308279E-01  1.336931040554E-01  1.169824891207E-01
  1.018207376991E-01  8.812632016042E-02  7.581630309061E-02  6.480683812387E-02
  5.501365747182E-02  4.635257125475E-02  3.873996151533E-02  3.209326763547E-02
  2.633145779213E-02  2.137548108375E-02  1.714869504290E-02  1.357726342808E-02
  1.059051946083E-02  8.121290046825E-03  6.106176989027E-03  4.485791766131E-03
  3.204941103519E-03  2.212761299753E-03  1.462800077447E-03  9.130455898562E-04
  5.259031170424E-04  2.681209091887E-04  1.106675583344E-04  2.856418074301E-05
  6.755462313889E-07  9.465073567932E-06  4.071929820256E-05  8.324798692354E-05
  1.285665023554E-04  1.705672902667E-04  2.051874600713E-04  2.300793440801E-04
  2.442906499440E-04  2.479603654989E-04  2.420359447174E-04  2.280165134320E-04
  2.077259064544E-04  1.831183126781E-04  1.561181963667E-04  1.284950204194E-04
  1.017721634292E-04  7.716834079419E-05  5.556885446484E-05  3.752314695337E-05
  2.326445901550E-05  1.274691597931E-05  5.695115188015E-06  1.661266060106E-06
  8.514283046001E-08  3.525339273563E-07  1.848484988485E-06  4.002397526179E-06
  6.322915749958E-06  8.421456810158E-06  1.002415789946E-05  1.097287043332E-05
  1.121657405014E-05  1.079516635908E-05  9.817974493639E-06  8.439512109090E-06
  6.834967142987E-06  5.177664944609E-06  3.620337935232E-06  2.281490472486E-06
  1.237530246335E-06  5.207053410838E-07  1.222994129802E-07  5.117332610668E-11
  8.842249230865E-08  3.101703116014E-07  5.876907530115E-07  8.527888699094E-07
  1.053854850495E-06  1.159851717838E-06  1.160984635256E-06  1.066367931220E-06
  8.993767089123E-07  6.916202289763E-07  4.765761267465E-07  2.838710518255E-07
  1.349998442346E-07  4.097737291410E-08  2.065077890425E-09  0.000000000000E+00
  0.000000000000E+00  0.000000000000E+00  0.000000000000E+00  0.000000000000E+00
  0.000000000000E+00  0.000000000000E+00
</data>
</radfunc>
</pseudocore-charge>
<semilocal-potentials set="scalar_relativistic">
<slps n="5" l="s" rc="2.27353342651" eref="-0.982388442579">
<radfunc>
<data npts="290">
  1.477752726281E+01  1.477330234369E+01  1.476027367659E+01  1.473873383776E+01
  1.470884059760E+01  1.466963034470E+01  1.461981505535E+01  1.456298809748E+01
  1.449936580873E+01  1.442553531506E+01  1.434278074931E+01  1.425338623114E+01
  1.414611026759E+01  1.403495249468E+01  1.390496834444E+01  1.377637377921E+01
  1.362978339680E+01  1.349228124824E+01  1.333936029642E+01  1.316955466320E+01
  1.298132398216E+01  1.281639861048E+01  1.263781575807E+01  1.244472405265E+01
  1.223627121399E+01  1.201161520567E+01  1.176993729674E+01  1.157703686929E+01
  1.137381183057E+01  1.115997434769E+01  1.093526314304E+01  1.069944846390E+01
  1.045233726584E+01  1.019377854702E+01  9.923668756757E+00  9.641957187792E+00
  9.348651248592E+00  9.043821499881E+00  8.834264969362E+00  8.619705397229E+00
  8.400216131975E+00  8.175885662381E+00  7.946817966697E+00  7.713132782555E+00
  7.474965790306E+00  7.232468703058E+00  6.985809257372E+00  6.735171099445E+00
  6.480753562592E+00  6.222771332963E+00  5.961454001713E+00  5.697045503152E+00
  5.429803439885E+00  5.159998297404E+00  4.887912552177E+00  4.613839678748E+00
  4.338083062915E+00  4.060954829462E+00  3.782774594281E+00  3.503868151944E+00
  3.224566110837E+00  2.945202488908E+00  2.666113283720E+00  2.387635031026E+00
  2.110103366310E+00  1.833851603789E+00  1.559209347121E+00  1.422593438181E+00
  1.286501145656E+00  1.150972037620E+00  1.016045209421E+00  8.817592475919E-01
  7.481521951326E-01  6.152615182404E-01  4.831240745602E-01  3.517760830219E-01
  2.212530953228E-01  9.158996911187E-02 -3.717915707458E-02 -1.650208870848E-01
 -2.919025885906E-01 -4.177924126673E-01 -5.426593114820E-01 -6.664730540800E-01
 -7.892042402460E-01 -9.108243124448E-01 -1.031305565826E+00 -1.150621156308E+00
 -1.268745106749E+00 -1.385652311212E+00 -1.501318537356E+00 -1.615720426968E+00
 -1.728835494678E+00 -1.840642124876E+00 -1.951119566884E+00 -2.060247928426E+00
 -2.168008167430E+00 -2.274382082233E+00 -2.379352300224E+00 -2.482902264999E+00
 -2.585016222082E+00 -2.685679203270E+00 -2.784877009685E+00 -2.882596193574E+00
 -2.978824038957E+00 -3.073548541171E+00 -3.166758385385E+00 -3.258442924173E+00
 -3.348592154199E+00 -3.437196692092E+00 -3.524247749588E+00 -3.609737107997E+00
 -3.693657092077E+00 -3.776000543365E+00 -3.856760793034E+00 -3.935931634340E+00
 -4.013507294701E+00 -4.089482407476E+00 -4.163851983459E+00 -4.236611382167E+00
 -4.307756282919E+00 -4.377282655748E+00 -4.445186732179E+00 -4.511464975858E+00
 -4.576114053064E+00 -4.639130803100E+00 -4.700512208554E+00 -4.760255365428E+00
 -4.818357453124E+00 -4.874815704272E+00 -4.929627374398E+00 -4.982789711403E+00
 -5.034299924873E+00 -5.084155155216E+00 -5.132352442600E+00 -5.178888695817E+00
 -5.223760660998E+00 -5.266964890338E+00 -5.308497710879E+00 -5.348355193477E+00
 -5.386533122109E+00 -5.423026963699E+00 -5.457831838680E+00 -5.490942492571E+00
 -5.522353268840E+00 -5.552058083413E+00 -5.580050401199E+00 -5.606323215046E+00
 -5.630869027560E+00 -5.653679836272E+00 -5.674747122615E+00 -5.694061845210E+00