<?xml version="1.0" encoding="UTF-8" ?>
<psml version="1.1" energy_unit="hartree" length_unit="bohr"
 uuid="5655c1f0-be63-11e7-6d2d-bebaf1db6d95"
 xmlns="http://esl.cecam.org/PSML/ns/1.1">
<provenance creator="ONCVPSP-3.3.0+psml-3.3.0-73 (scalar-relativistic)"
 date="2017-10-31">
<annotation action="semilocal-pseudopotential-generation"
 action-cont="projectors-generation" />
<input-file name="oncvpsp-input">
<![CDATA[# atsym z nc nv iexc psfile
Ge 32 3 5 4 upf
# n l f
1 0 2.0
2 0 2.0
2 1 6.0
3 0 2.0
3 1 6.0
3 2 10.0
4 0 2.0
4 1 2.0
# lmax
2
# l rc ep ncon nbas qcut
0 1.2 0.0 4 7 9.6
1 1.3 0.0 4 7 10.5
2 1.5 0.0 4 7 11.0
# lloc lpopt rc5 dvloc0
4 5 1.2 0.0
# l nproj debl
0 2 1.0
1 2 1.5
2 2 3.0
# icmod fcfact rcfact
3 3.0 1.5
# epsh1 epsh2 depsh
-12.0 12.0 0.02
# rlmax drl
6.0 0.01
 0
]]>
</input-file>
</provenance>
<pseudo-atom-spec atomic-label="Ge" atomic-number="32" z-pseudo="22"
 flavor="Hamann&apos;s oncvpsp" relativity="scalar" spin-dft="no"
 core-corrections="yes">
<annotation pseudo-energy="-276.325020941" />
<exchange-correlation>
<annotation oncvpsp-xc-code="4" oncvpsp-xc-type="GGA -- Perdew-Burke-Ernzerhof" />
<libxc-info number-of-functionals="2">
<functional name="Perdew, Burke &amp; Ernzerhof (GGA)" type="exchange" id="101" />
<functional name="Perdew, Burke &amp; Ernzerhof (GGA)" type="correlation"
 id="130" />
</libxc-info>
</exchange-correlation>
<valence-configuration total-valence-charge="22">
<shell n="3" l="s" occupation="2" />
<shell n="3" l="p" occupation="6" />
<shell n="3" l="d" occupation="10" />
<shell n="4" l="s" occupation="2" />
<shell n="4" l="p" occupation="2" />
</valence-configuration>
</pseudo-atom-spec>
<grid npts="457">
<annotation type="sampled from oncvpsp log grid"
 recipe="r(i:1..N) = r1*exp(a*(i-1)) + r=0; resampled"
 recipe-cont="r1: scale; a: step" scale="0.156250000000E-04"
 step="0.119285708653E-01" delta="0.500000000000E-02" rmax="44.0106814606" />
<grid-data>
  0.000000000000E+00  5.025601837514E-03  1.003824527536E-02  1.505896861607E-02
  2.029121445031E-02  2.545292972101E-02  3.080533800935E-02  3.597266729221E-02
  4.101646976877E-02  4.621291924683E-02  5.145031239924E-02  5.660204419540E-02
  6.226962009944E-02  6.769238310509E-02  7.271481084123E-02  7.810987696307E-02
  8.390522932815E-02  8.906182522060E-02  9.453533200659E-02  1.003452262006E-01
  1.065121812926E-01  1.117175309401E-01  1.171772708801E-01  1.229038334035E-01
  1.289102583787E-01  1.352102229449E-01  1.418180726557E-01  1.469850337403E-01
  1.523402464797E-01  1.578905695834E-01  1.636431116494E-01  1.696052402683E-01
  1.757845914596E-01  1.821890794514E-01  1.888269068167E-01  1.957065749787E-01
  2.028368950993E-01  2.102269993637E-01  2.153027200364E-01  2.205009889089E-01
  2.258247647852E-01  2.312770779061E-01  2.368610316751E-01  2.425798044239E-01
  2.484366512219E-01  2.544349057290E-01  2.605779820929E-01  2.668693768925E-01
  2.733126711282E-01  2.799115322600E-01  2.866697162948E-01  2.935910699251E-01
  3.006795327173E-01  3.079391393553E-01  3.153740219359E-01  3.229884123215E-01
  3.307866445486E-01  3.387731572945E-01  3.469524964043E-01  3.553293174774E-01
  3.639083885186E-01  3.726945926510E-01  3.816929308960E-01  3.909085250195E-01
  4.003466204476E-01  4.100125892517E-01  4.199119332066E-01  4.249508764051E-01
  4.300502869219E-01  4.352108903650E-01  4.404334210494E-01  4.457186221020E-01
  4.510672455672E-01  4.564800525140E-01  4.619578131442E-01  4.675013069019E-01
  4.731113225847E-01  4.787886584557E-01  4.845341223572E-01  4.903485318255E-01
  4.962327142074E-01  5.021875067779E-01  5.082137568592E-01  5.143123219415E-01
  5.204840698048E-01  5.267298786425E-01  5.330506371862E-01  5.394472448324E-01
  5.459206117704E-01  5.524716591117E-01  5.591013190210E-01  5.658105348493E-01
  5.726002612674E-01  5.794714644027E-01  5.864251219755E-01  5.934622234392E-01
  6.005837701205E-01  6.077907753619E-01  6.150842646662E-01  6.224652758422E-01
  6.299348591524E-01  6.374940774622E-01  6.451440063917E-01  6.528857344684E-01
  6.607203632820E-01  6.686490076414E-01  6.766727957331E-01  6.847928692819E-01
  6.930103837133E-01  7.013265083179E-01  7.097424264177E-01  7.182593355347E-01
  7.268784475611E-01  7.356009889318E-01  7.444282007990E-01  7.533613392086E-01
  7.624016752791E-01  7.715504953825E-01  7.808091013271E-01  7.901788105430E-01
  7.996609562695E-01  8.092568877447E-01  8.189679703977E-01  8.287955860424E-01
  8.387411330750E-01  8.488060266719E-01  8.589916989919E-01  8.692995993798E-01
  8.797311945724E-01  8.902879689072E-01  9.009714245341E-01  9.117830816285E-01
  9.227244786081E-01  9.337971723514E-01  9.450027384196E-01  9.563427712806E-01
  9.678188845360E-01  9.794327111504E-01  9.911859036842E-01  1.003080134528E+00
  1.015117096143E+00  1.027298501296E+00  1.039626083312E+00  1.052101596312E+00
  1.064726815468E+00  1.077503537253E+00  1.090433579700E+00  1.103518782657E+00
  1.116761008048E+00  1.130162140145E+00  1.143724085827E+00  1.157448774857E+00
  1.171338160155E+00  1.185394218077E+00  1.199618948694E+00  1.214014376078E+00
  1.228582548591E+00  1.243325539174E+00  1.258245445644E+00  1.273344390992E+00
  1.288624523684E+00  1.304088017968E+00  1.319737074184E+00  1.335573919074E+00
  1.351600806103E+00  1.367820015776E+00  1.384233855965E+00  1.400844662237E+00
  1.417654798184E+00  1.434666655762E+00  1.451882655631E+00  1.469305247499E+00
  1.486936910469E+00  1.504780153394E+00  1.522837515235E+00  1.541111565418E+00
  1.559604904203E+00  1.578320163053E+00  1.597260005010E+00  1.616427125070E+00
  1.635824250571E+00  1.655454141578E+00  1.675319591277E+00  1.695423426372E+00
  1.715768507488E+00  1.736357729578E+00  1.757194022333E+00  1.778280350601E+00
  1.799619714808E+00  1.821215151386E+00  1.843069733203E+00  1.865186570001E+00
  1.887568808841E+00  1.910219634547E+00  1.933142270162E+00  1.956339977404E+00
  1.979816057133E+00  2.003573849818E+00  2.027616736016E+00  2.051948136848E+00
  2.076571514490E+00  2.101490372664E+00  2.126708257136E+00  2.152228756222E+00
  2.178055501297E+00  2.204192167312E+00  2.230642473320E+00  2.257410183000E+00
  2.284499105196E+00  2.311913094458E+00  2.339656051592E+00  2.367731924211E+00
  2.396144707301E+00  2.424898443789E+00  2.453997225114E+00  2.483445191816E+00
  2.513246534117E+00  2.543405492527E+00  2.573926358437E+00  2.604813474738E+00
  2.636071236435E+00  2.667704091273E+00  2.699716540368E+00  2.732113138852E+00
  2.764898496518E+00  2.798077278477E+00  2.831654205818E+00  2.865634056288E+00
  2.900021664964E+00  2.934821924943E+00  2.970039788043E+00  3.005680265499E+00
  3.041748428685E+00  3.078249409829E+00  3.115188402747E+00  3.152570663580E+00
  3.190401511543E+00  3.228686329682E+00  3.267430565638E+00  3.306639732426E+00
  3.346319409215E+00  3.386475242125E+00  3.427112945031E+00  3.468238300371E+00
  3.509857159976E+00  3.551975445895E+00  3.594599151246E+00  3.637734341061E+00
  3.681387153154E+00  3.725563798992E+00  3.770270564579E+00  3.815513811354E+00
  3.861299977091E+00  3.907635576816E+00  3.954527203737E+00  4.001981530182E+00
  4.050005308545E+00  4.098605372247E+00  4.147788636714E+00  4.197562100355E+00
  4.247932845559E+00  4.298908039706E+00  4.350494936182E+00  4.402700875416E+00
  4.455533285921E+00  4.508999685352E+00  4.563107681576E+00  4.617864973755E+00
  4.673279353440E+00  4.729358705682E+00  4.786111010150E+00  4.843544342272E+00
  4.901666874379E+00  4.960486876872E+00  5.020012719394E+00  5.080252872027E+00
  5.141215906491E+00  5.202910497369E+00  5.265345423337E+00  5.328529568417E+00
  5.392471923238E+00  5.457181586317E+00  5.522667765353E+00  5.588939778537E+00
  5.656007055880E+00  5.723879140550E+00  5.792565690237E+00  5.862076478520E+00
  5.932421396262E+00  6.003610453017E+00  6.075653778453E+00  6.148561623795E+00
  6.222344363280E+00  6.297012495640E+00  6.372576645587E+00  6.449047565334E+00
  6.526436136118E+00  6.604753369752E+00  6.684010410189E+00  6.764218535111E+00
  6.845389157533E+00  6.927533827423E+00  7.010664233352E+00  7.094792204152E+00
  7.179929710602E+00  7.266088867129E+00  7.353281933535E+00  7.441521316737E+00
  7.530819572538E+00  7.621189407409E+00  7.712643680297E+00  7.805195404461E+00
  7.898857749315E+00  7.993644042306E+00  8.089567770814E+00  8.186642584064E+00
  8.284882295073E+00  8.384300882613E+00  8.484912493205E+00  8.586731443123E+00
  8.689772220441E+00  8.794049487086E+00  8.899578080931E+00  9.006373017902E+00
  9.114449494117E+00  9.223822888046E+00  9.334508762703E+00  9.446522867855E+00
  9.559881142270E+00  9.674599715977E+00  9.790694912569E+00  9.908183251519E+00
  1.002708145054E+01  1.014740642794E+01  1.026917530508E+01  1.039240540874E+01
  1.051711427365E+01  1.064331964493E+01  1.077103948067E+01  1.090029195444E+01
  1.103109545789E+01  1.116346860338E+01  1.129743022662E+01  1.143299938934E+01
  1.157019538202E+01  1.170903772660E+01  1.184954617932E+01  1.199174073347E+01
  1.213564162227E+01  1.228126932174E+01  1.242864455360E+01  1.257778828824E+01
  1.272872174770E+01  1.288146640868E+01  1.303604400558E+01  1.319247653365E+01
  1.335078625205E+01  1.351099568708E+01  1.367312763532E+01  1.383720516694E+01
  1.400325162895E+01  1.417129064849E+01  1.434134613628E+01  1.451344228991E+01
  1.468760359739E+01  1.486385484056E+01  1.504222109865E+01  1.522272775183E+01
  1.540540048485E+01  1.559026529067E+01  1.577734847416E+01  1.596667665585E+01
  1.615827677572E+01  1.635217609703E+01  1.654840221019E+01  1.674698303671E+01
  1.694794683315E+01  1.715132219515E+01  1.735713806149E+01  1.756542371823E+01
  1.777620880285E+01  1.798952330849E+01  1.820539758819E+01  1.842386235925E+01
  1.864494870756E+01  1.886868809205E+01  1.909511234915E+01  1.932425369734E+01
  1.955614474171E+01  1.979081847861E+01  2.002830830035E+01  2.026864799996E+01
  2.051187177596E+01  2.075801423727E+01  2.100711040812E+01  2.125919573301E+01
  2.151430608181E+01  2.177247775479E+01  2.203374748785E+01  2.229815245770E+01
  2.256573028719E+01  2.283651905064E+01  2.311055727925E+01  2.338788396660E+01
  2.366853857420E+01  2.395256103709E+01  2.423999176953E+01  2.453087167077E+01
  2.482524213082E+01  2.512314503639E+01  2.542462277682E+01  2.572971825015E+01
  2.603847486915E+01  2.635093656758E+01  2.666714780639E+01  2.698715358007E+01
  2.731099942303E+01  2.763873141610E+01  2.797039619310E+01  2.830604094741E+01
  2.864571343878E+01  2.898946200005E+01  2.933733554405E+01  2.968938357058E+01
  3.004565617342E+01  3.040620404750E+01  3.077107849607E+01  3.114033143803E+01
  3.151401541528E+01  3.189218360027E+01  3.227488980347E+01  3.266218848111E+01
  3.305413474289E+01  3.345078435980E+01  3.385219377212E+01  3.425842009738E+01
  3.466952113855E+01  3.508555539221E+01  3.550658205692E+01  3.593266104160E+01
  3.636385297410E+01  3.680021920979E+01  3.724182184031E+01  3.768872370239E+01
  3.814098838682E+01  3.859868024746E+01  3.906186441043E+01  3.953060678336E+01
  4.000497406476E+01  4.048503375354E+01  4.097085415858E+01  4.146250440848E+01
  4.196005446138E+01  4.246357511492E+01  4.297313801630E+01  4.348881567249E+01
  4.401068146056E+01
</grid-data>
</grid>
<valence-charge total-charge="22" is-unscreening-charge="yes"
 rescaled-to-z-pseudo="no">
<radfunc>
<data npts="457">
  3.548232254302E+01  3.549721573697E+01  3.554173070994E+01  3.561597807081E+01
  3.572488066286E+01  3.586376046601E+01  3.604063725533E+01  3.624300520239E+01
  3.647032637252E+01  3.673512238918E+01  3.703320666202E+01  3.735673479247E+01
  3.774707726404E+01  3.815396878255E+01  3.855963531717E+01  3.902589119588E+01
  3.956143934945E+01  4.006771714524E+01  4.063525617225E+01  4.127102282661E+01
  4.198264467221E+01  4.261211916817E+01  4.330001915986E+01  4.405119655798E+01
  4.487077098279E+01  4.576410876873E+01  4.673678950914E+01  4.752181963504E+01
  4.835717094819E+01  4.924531460398E+01  5.018870429814E+01  5.118974363533E+01
  5.225074647863E+01  5.337388919473E+01  5.456115360022E+01  5.581425930900E+01
  5.713458408994E+01  5.852307077547E+01  5.948681973825E+01  6.048101361497E+01
  6.150546191874E+01  6.255980440788E+01  6.364348945025E+01  6.475575064791E+01
  6.589558169691E+01  6.706170948328E+01  6.825256544828E+01  6.946625529601E+01
  7.070052716487E+01  7.195273844215E+01  7.321982146951E+01  7.449824846720E+01
  7.578399609679E+01  7.707251018805E+01  7.835867127360E+01  7.963676170779E+01
  8.090043529045E+01  8.214269047317E+01  8.335584839173E+01  8.453153714066E+01
  8.566068388052E+01  8.673351653916E+01  8.773957702737E+01  8.866774802726E+01
  8.950629551777E+01  9.024292926052E+01  9.086488346670E+01  9.112876125538E+01
  9.135901978277E+01  9.155397941547E+01  9.171195454993E+01  9.183125902891E+01
  9.191021199015E+01  9.194714415063E+01  9.194040452724E+01  9.188836759087E+01
  9.178944084737E+01  9.164207283463E+01  9.144476152030E+01  9.119606307992E+01
  9.089460102972E+01  9.053907568282E+01  9.012827389131E+01  8.966107903065E+01
  8.913648117593E+01  8.855358741292E+01  8.791163221975E+01  8.720998784822E+01
  8.644817462624E+01  8.562587109664E+01  8.474292390020E+01  8.379935730470E+01
  8.279538227579E+01  8.173140498010E+01  8.060803460635E+01  7.942609038660E+01
  7.818660769730E+01  7.689084311806E+01  7.554027832658E+01  7.413662270949E+01
  7.268181457243E+01  7.117802083784E+01  6.962763512657E+01  6.803327412860E+01
  6.639777218007E+01  6.472417397813E+01  6.301572538103E+01  6.127586226022E+01
  5.950819739171E+01  5.771650539750E+01  5.590470577249E+01  5.407684405968E+01
  5.223707126388E+01  5.038962162404E+01  4.853878889349E+01  4.668890130747E+01
  4.484429544652E+01  4.300928923235E+01  4.118815431923E+01  3.938508816766E+01
  3.760418610772E+01  3.584941371609E+01  3.412457984296E+01  3.243331063148E+01
  3.077902487363E+01  2.916491104104E+01  2.759390631676E+01  2.606867793581E+01
  2.459160711547E+01  2.316477582448E+01  2.178995660022E+01  2.046860557849E+01
  1.920185884956E+01  1.799053219987E+01  1.683512424110E+01  1.573582286855E+01
  1.469251493155E+01  1.370479893981E+01  1.277200057436E+01  1.189319072066E+01
  1.106720569672E+01  1.029266931139E+01  9.568016359811E+00  8.891517143419E+00
  8.261302593857E+00  7.675389581681E+00  7.131706003602E+00  6.628115264557E+00
  6.162439802832E+00  5.732483346459E+00  5.336051635506E+00  4.970971396118E+00
  4.635107406160E+00  4.326377547098E+00  4.042765790387E+00  3.782333117234E+00
  3.543226559694E+00  3.323686785197E+00  3.122053888279E+00  2.936770242200E+00
  2.766381927466E+00  2.609538669709E+00  2.464992188068E+00  2.331591998994E+00
  2.208280038240E+00  2.094088654041E+00  1.988137912651E+00  1.889632419973E+00
  1.797857700938E+00  1.712176197840E+00  1.632022942636E+00  1.556900947503E+00
  1.486376352038E+00  1.420073362185E+00  1.357667193916E+00  1.298869956487E+00
  1.243414595293E+00  1.191051687510E+00  1.141550696438E+00  1.094697915121E+00
  1.050295680151E+00  1.008161426022E+00  9.681267852195E-01  9.300367182350E-01
  8.937486739290E-01  8.591317808952E-01  8.260660703192E-01  7.944417307039E-01
  7.641583947097E-01  7.351244582355E-01  7.072564317360E-01  6.804783236411E-01
  6.547210556156E-01  6.299219092789E-01  6.060240038380E-01  5.829758040878E-01
  5.607306579976E-01  5.392463631090E-01  5.184847608603E-01  4.984113579006E-01
  4.789949734030E-01  4.602074113541E-01  4.420231567675E-01  4.244190947573E-01
  4.073742513940E-01  3.908695552742E-01  3.748876187344E-01  3.594125376579E-01
  3.444297088371E-01  3.299256638783E-01  3.158879186565E-01  3.023048373585E-01
  2.891655101799E-01  2.764596437701E-01  2.641774635565E-01  2.523096271065E-01
  2.408471477215E-01  2.297813274915E-01  2.191036990717E-01  2.088059754761E-01
  1.988800072179E-01  1.893177461620E-01  1.801112154734E-01  1.712524851130E-01
  1.627336523201E-01  1.545468265844E-01  1.466841186276E-01  1.391376329493E-01
  1.318994635182E-01  1.249616922206E-01  1.183163897039E-01  1.119556182809E-01
  1.058714365838E-01  1.000559056851E-01  9.450109642264E-02  8.919909769060E-02
  8.414202547901E-02  7.932203246486E-02  7.473131797702E-02  7.036213817562E-02
  6.620681630339E-02  6.225775288270E-02  5.850743574712E-02  5.494844981009E-02
  5.157348648653E-02  4.837535269528E-02  4.534697938170E-02  4.248142950812E-02
  3.977190547366E-02  3.721175592917E-02  3.479448196350E-02  3.251374264385E-02
  3.036335990028E-02  2.833732274989E-02  2.642979086241E-02  2.463509747366E-02
  2.294775165797E-02  2.136243997493E-02  1.987402750943E-02  1.847755832707E-02
  1.716825537021E-02  1.594151982200E-02  1.479292996802E-02  1.371823958680E-02
  1.271337590174E-02  1.177443712792E-02  1.089768964809E-02  1.007956485213E-02
  9.316655674512E-03  8.605712863968E-03  7.943641018932E-03  7.327494421646E-03
  6.754472702763E-03  6.221916367148E-03  5.727302210193E-03  5.268238652517E-03
  4.842461019326E-03  4.447826789064E-03  4.082310834212E-03  3.744000675409E-03
  3.431091768214E-03  3.141882840110E-03  2.874771293584E-03  2.628248689375E-03
  2.400896322360E-03  2.191380900879E-03  1.998450338792E-03  1.820929668069E-03
  1.657717078316E-03  1.507780088316E-03  1.370151853443E-03  1.243927611640E-03
  1.128261269606E-03  1.022362129834E-03  9.254917582637E-04  8.369609915148E-04
  7.561270819064E-04  6.823909778677E-04  6.151947367604E-04  5.540190666643E-04
  4.983809932772E-04  4.478316477565E-04  4.019541710790E-04  3.603617303147E-04
  3.226956420963E-04  2.886235985087E-04  2.578379906225E-04  2.300543249462E-04
  2.050097281601E-04  1.824615356222E-04  1.621859592940E-04  1.439768309096E-04
  1.276444164103E-04  1.130142978679E-04  9.992631933431E-05  8.823359325611E-05
  7.780156433530E-05  6.850712776313E-05  6.023779943290E-05  5.289093480476E-05
  4.637299492134E-05  4.059885669304E-05  3.549116536650E-05  3.097972734065E-05
  2.700094131929E-05  2.349726597234E-05  2.041672237598E-05  1.771242956241E-05
  1.534217157418E-05  1.326799447410E-05  1.145583181185E-05  9.875157093969E-06
  8.498661845465E-06  7.301957891093E-06  6.263302521732E-06  5.363345248554E-06
  4.584894884325E-06  3.912705728347E-06  3.333281669318E-06  2.834697059056E-06
  2.406433249833E-06  2.039229728876E-06  1.724948825540E-06  1.456453009550E-06
  1.227493842406E-06  1.032611688381E-06  8.670453363104E-07  7.266507282537E-07
  6.078280359892E-07  5.074563708089E-07  4.228354560833E-07  3.516336352637E-07
  2.918416302177E-07  2.417315058505E-07  1.998203366839E-07  1.648381093067E-07
  1.356994312585E-07  1.114786518657E-07  9.138803374439E-08  7.475864507707E-08
  6.102367232379E-08  4.970388074224E-08  4.039497597408E-08  3.275664403160E-08
  2.650306933073E-08  2.139475101434E-08  1.723145675550E-08  1.384617059277E-08
  1.109990720446E-08  8.877279456015E-09  7.082719137519E-09  5.637262630755E-09
  4.475823893669E-09  3.544886707932E-09  2.800556686470E-09  2.206921163001E-09
  1.734671862879E-09  1.359951258698E-09  1.063388816225E-09  8.292980033292E-10
  6.450090296135E-10  5.003158661043E-10  3.870192170141E-10  2.985498294353E-10
  2.296588778923E-10  1.761641910043E-10  1.347428352782E-10  1.027620707988E-10
  7.814197640750E-11  5.924413572482E-11  4.478170495320E-11  3.374697089521E-11
  2.535317259712E-11  1.898791971942E-11  1.417601027349E-11  1.054984297582E-11
  7.825946675333E-12  5.786421095511E-12  4.264308130532E-12  3.132098569946E-12
  2.292731765069E-12  1.672570827148E-12  1.215938085186E-12  8.808786464699E-13
  6.358873004848E-13  4.573884653963E-13  3.278027222538E-13  2.340686560746E-13
  1.665168372013E-13  1.180151650137E-13  8.332255888634E-14  5.860202105400E-14
  4.105515098035E-14  2.864886184265E-14  1.991182690846E-14  1.378345034928E-14
  9.502255868095E-15  6.523730396678E-15  4.460094999321E-15  3.036330747233E-15
  2.058205261056E-15  1.389122131031E-15  9.334295422454E-16  6.244374801882E-16
  4.158525329471E-16  2.756824210498E-16  1.819173823593E-16  1.194841998847E-16
  7.810760999961E-17  5.081569742116E-17  3.290022008678E-17  2.119680445077E-17
  1.358896356470E-17  8.668020838223E-18  5.501028799833E-18  3.473200328400E-18
  2.181461086011E-18  0.000000000000E+00  0.000000000000E+00  0.000000000000E+00
  0.000000000000E+00  0.000000000000E+00  0.000000000000E+00  0.000000000000E+00
  0.000000000000E+00  0.000000000000E+00  0.000000000000E+00  0.000000000000E+00
  0.000000000000E+00  0.000000000000E+00  0.000000000000E+00  0.000000000000E+00
  0.000000000000E+00  0.000000000000E+00  0.000000000000E+00  0.000000000000E+00
  0.000000000000E+00
</data>
</radfunc>
</valence-charge>
<pseudocore-charge matching-radius="0.326864273269"
 number-of-continuous-derivatives="4">
<annotation model-charge-form="Teter function with specified parameters" />
<radfunc>
<data npts="290">
  2.507348829696E+02  2.506516643413E+02  2.504030204330E+02  2.499886122536E+02
  2.493814774588E+02  2.486084246248E+02  2.476258200992E+02  2.465042805943E+02
  2.452478438774E+02  2.437887924020E+02  2.421521085454E+02  2.403826286561E+02
  2.382572424846E+02  2.360527717260E+02  2.338660724019E+02  2.313664186005E+02
  2.285131633200E+02  2.258333026127E+02  2.228491731338E+02  2.195312015474E+02
  2.158482701825E+02  2.126174443237E+02  2.091154025695E+02  2.053250653721E+02
  2.012294753944E+02  1.968121078142E+02  1.920572488578E+02  1.882608721442E+02
  1.842610348209E+02  1.800529930616E+02  1.756328787969E+02  1.709978778262E+02
  1.661464239116E+02  1.610784079798E+02  1.557954008575E+02  1.503008871144E+02
  1.446005065747E+02  1.387022988662E+02  1.346654152091E+02  1.305491613440E+02
  1.263579985847E+02  1.220970107660E+02  1.177719274451E+02  1.133891433305E+02
  1.089557331129E+02  1.044794608103E+02  9.996878268854E+01  9.543284277239E+01
  9.088145993623E+01  8.632510555424E+01  8.177487070335E+01  7.724242195620E+01
  7.273994487746E+01  6.828007445333E+01  6.387581184443E+01  5.954042706214E+01
  5.528734743211E+01  5.113003202914E+01  4.708183264556E+01  4.315584229206E+01
  3.936473271954E+01  3.572058298866E+01  3.223470168826E+01  2.891744600014E+01
  2.577804140468E+01  2.282440639557E+01  2.006298708944E+01  1.875593277259E+01
  1.749860704311E+01  1.629133807952E+01  1.513433788677E+01  1.402769979461E+01
  1.297139650237E+01  1.196527871088E+01  1.100907437955E+01  1.010238864385E+01
  9.244704424074E+00  8.435383752431E+00  7.673669839818E+00  6.958689898176E+00
  6.289458727746E+00  5.664883071447E+00  5.083766731070E+00  4.544816431669E+00
  4.046648412036E+00  3.587795710086E+00  3.166716102825E+00  2.781800651133E+00
  2.431382790301E+00  2.113747898002E+00  1.827143262507E+00  1.569788365564E+00
  1.339885386613E+00  1.135629828198E+00  9.552211566237E-01  7.968733473982E-01
  6.588252219136E-01  5.393504603599E-01  4.367671761726E-01  3.494469395382E-01
  2.758231417144E-01  2.143985982329E-01  1.637522974717E-01  1.225452115894E-01
  8.952509933005E-02  6.353024460663E-02  4.349209086674E-02  2.843674878488E-02
  1.748537350573E-02  9.853427118513E-03  4.848861855615E-03  1.869279220518E-03
  3.981393639259E-04  1.130261458077E-07  3.156847219520E-04  1.055130045485E-03
  1.992001527919E-03  2.956265948019E-03  3.827241000823E-03  4.526480485335E-03
  5.010754497068E-03  5.265264446657E-03  5.297222148289E-03  5.129907952332E-03
  4.797305303985E-03  4.339388707514E-03  3.798119511932E-03  3.214179974846E-03
  2.624451565285E-03  2.060219353428E-03  1.546061547868E-03  1.099362701641E-03
  7.303716728233E-04  4.427118363993E-04  2.342418854416E-04  9.816121638350E-05
  2.425451906716E-05  1.756881700832E-07  1.268117837579E-05  4.873682760502E-05
  9.643912780090E-05  1.457109000248E-04  1.887511675502E-04  2.202384937151E-04
  2.373049554771E-04  2.393131562135E-04  2.274803239898E-04  2.044009335666E-04
  1.735220865769E-04  1.386240905974E-04  1.033526604422E-04  7.083962877636E-05
  4.343698922175E-05  2.257569966930E-05  8.747243109301E-06  1.593755338662E-06
  8.271787741112E-08  2.735656747875E-06  7.877508179417E-06  1.387442382180E-05
  1.933247486411E-05  2.323726291493E-05  2.502382309116E-05  2.457618079356E-05
  2.216521934714E-05  1.834096629596E-05  1.380011417461E-05  9.251049600082E-06
  5.296828137440E-06  2.351829508453E-06  6.010986370580E-07  3.750998450834E-09
  0.000000000000E+00  0.000000000000E+00  0.000000000000E+00  0.000000000000E+00
  0.000000000000E+00  0.000000000000E+00  0.000000000000E+00  0.000000000000E+00
  0.000000000000E+00  0.000000000000E+00  0.000000000000E+00  0.000000000000E+00
  0.000000000000E+00  0.000000000000E+00  0.000000000000E+00  0.000000000000E+00
  0.000000000000E+00  0.000000000000E+00  0.000000000000E+00  0.000000000000E+00
  0.000000000000E+00  0.000000000000E+00  0.000000000000E+00  0.000000000000E+00
  0.000000000000E+00  0.000000000000E+00  0.000000000000E+00  0.000000000000E+00
  0.000000000000E+00  0.000000000000E+00  0.000000000000E+00  0.000000000000E+00
  0.000000000000E+00  0.000000000000E+00  0.000000000000E+00  0.000000000000E+00
  0.000000000000E+00  0.000000000000E+00  0.000000000000E+00  0.000000000000E+00
  0.000000000000E+00  0.000000000000E+00  0.000000000000E+00  0.000000000000E+00
  0.000000000000E+00  0.000000000000E+00  0.000000000000E+00  0.000000000000E+00
  0.000000000000E+00  0.000000000000E+00  0.000000000000E+00  0.000000000000E+00
  0.000000000000E+00  0.000000000000E+00  0.000000000000E+00  0.000000000000E+00
  0.000000000000E+00  0.000000000000E+00  0.000000000000E+00  0.000000000000E+00
  0.000000000000E+00  0.000000000000E+00  0.000000000000E+00  0.000000000000E+00
  0.000000000000E+00  0.000000000000E+00  0.000000000000E+00  0.000000000000E+00
  0.000000000000E+00  0.000000000000E+00  0.000000000000E+00  0.000000000000E+00
  0.000000000000E+00  0.000000000000E+00  0.000000000000E+00  0.000000000000E+00
  0.000000000000E+00  0.000000000000E+00  0.000000000000E+00  0.000000000000E+00
  0.000000000000E+00  0.000000000000E+00  0.000000000000E+00  0.000000000000E+00
  0.000000000000E+00  0.000000000000E+00  0.000000000000E+00  0.000000000000E+00
  0.000000000000E+00  0.000000000000E+00  0.000000000000E+00  0.000000000000E+00
  0.000000000000E+00  0.000000000000E+00  0.000000000000E+00  0.000000000000E+00
  0.000000000000E+00  0.000000000000E+00  0.000000000000E+00  0.000000000000E+00
  0.000000000000E+00  0.000000000000E+00  0.000000000000E+00  0.000000000000E+00
  0.000000000000E+00  0.000000000000E+00  0.000000000000E+00  0.000000000000E+00
  0.000000000000E+00  0.000000000000E+00  0.000000000000E+00  0.000000000000E+00
  0.000000000000E+00  0.000000000000E+00  0.000000000000E+00  0.000000000000E+00
  0.000000000000E+00  0.000000000000E+00
</data>
</radfunc>
</pseudocore-charge>
<semilocal-potentials set="scalar_relativistic">
<slps n="3" l="s" rc="1.21401437608" eref="-6.19192685452">
<radfunc>
<data npts="290">
 -3.938737420004E+01 -3.938718967085E+01 -3.938663881162E+01 -3.938572236449E+01
 -3.938438337821E+01 -3.938268460840E+01 -3.938053490161E+01 -3.937809368977E+01
 -3.937537372509E+01 -3.937223352546E+01 -3.936873263736E+01 -3.936497092098E+01
 -3.936048066829E+01 -3.935585095034E+01 -3.935128130933E+01 -3.934607906807E+01
 -3.934015989215E+01 -3.933460977699E+01 -3.932842935989E+01 -3.932154343276E+01
 -3.931386384657E+01 -3.930707895456E+01 -3.929965598214E+01 -3.929152049032E+01
 -3.928258438990E+01 -3.927274265765E+01 -3.926186928777E+01 -3.925294697792E+01
 -3.924328395431E+01 -3.923279282371E+01 -3.922137243560E+01 -3.920890562402E+01
 -3.919525661288E+01 -3.918026804093E+01 -3.916375755784E+01 -3.914551393786E+01
 -3.912529265418E+01 -3.910281085401E+01 -3.908640773071E+01 -3.906874668945E+01
 -3.904970785762E+01 -3.902915950796E+01 -3.900695700400E+01 -3.898294168449E+01
 -3.895693969505E+01 -3.892876078071E+01 -3.889819706064E+01 -3.886502181661E+01
 -3.882898833914E+01 -3.878982889206E+01 -3.874725387446E+01 -3.870095128054E+01
 -3.865058657860E+01 -3.859580314746E+01 -3.853622341508E+01 -3.847145083185E+01
 -3.840107276819E+01 -3.832466434231E+01 -3.824179305134E+01 -3.815202390122E+01
 -3.805492452753E+01 -3.795006961730E+01 -3.783704384656E+01 -3.771544261629E+01
 -3.758487015330E+01 -3.744493503166E+01 -3.729524376827E+01 -3.721661428998E+01
 -3.713539367352E+01 -3.705152908281E+01 -3.696496640431E+01 -3.687565017435E+01
 -3.678352355763E+01 -3.668852837801E+01 -3.659060520048E+01 -3.648969346182E+01
 -3.638573164668E+01 -3.627865750568E+01 -3.616840831244E+01 -3.605492115763E+01
 -3.593813327847E+01 -3.581798242337E+01 -3.569440725086E+01 -3.556734776209E+01
 -3.543674576414E+01 -3.530254535951E+01 -3.516469345390E+01 -3.502314027113E+01
 -3.487783986045E+01 -3.472875057847E+01 -3.457583552578E+01 -3.441906291761E+01
 -3.425840636867E+01 -3.409384507542E+01 -3.392536388344E+01 -3.375295323402E+01
 -3.357660899118E+01 -3.339633215816E+01 -3.321212849939E+01 -3.302400809026E+01
 -3.283198482092E+01 -3.263607588283E+01 -3.243630126618E+01 -3.223268329397E+01
 -3.202524621432E+01 -3.181401586683E+01 -3.159901943269E+01 -3.138028527183E+01
 -3.115784284471E+01 -3.093172271136E+01 -3.070195659685E+01 -3.046857750969E+01
 -3.023161989902E+01 -2.999111983637E+01 -2.974711520889E+01 -2.949964591310E+01
 -2.924875404056E+01 -2.899448404997E+01 -2.873688292333E+01 -2.847600030748E+01
 -2.821188864578E+01 -2.794460330875E+01 -2.767420273643E+01 -2.740074860959E+01
 -2.712430607152E+01 -2.684494402699E+01 -2.656273554978E+01 -2.627775843553E+01
 -2.599009594100E+01 -2.569983775506E+01 -2.540708124985E+01 -2.511193306136E+01
 -2.481451104839E+01 -2.451494667495E+01 -2.421338785527E+01 -2.391000229186E+01
 -2.360498132651E+01 -2.329854431262E+01 -2.299094350684E+01 -2.268246946950E+01
 -2.237345695928E+01 -2.206429130918E+01 -2.175541527835E+01 -2.144733638822E+01
 -2.114063477065E+01 -2.083597157834E+01 -2.053409803219E+01 -2.023586520494E+01
 -1.994223466486E+01 -1.965429012745E+01 -1.937325028943E+01 -1.910048304849E+01