<?xml version="1.0" encoding="UTF-8" ?>
<psml version="1.1" energy_unit="hartree" length_unit="bohr"
 uuid="2b0cd630-be42-11e7-64a0-fab3fbf63769"
 xmlns="http://esl.cecam.org/PSML/ns/1.1">
<provenance creator="ONCVPSP-3.3.0+psml-3.3.0-73 (scalar-relativistic)"
 date="2017-10-31">
<annotation action="semilocal-pseudopotential-generation"
 action-cont="projectors-generation" />
<input-file name="oncvpsp-input">
<![CDATA[# atsym z nc nv iexc psfile
Ge 32 5 3 4 upf
# n l f
1 0 2.0
2 0 2.0
2 1 6.0
3 0 2.0
3 1 6.0
3 2 10.0
4 0 2.0
4 1 2.0
# lmax
2
# l rc ep ncon nbas qcut
0 1.9 0.0 4 7 4.7
1 1.8 0.0 4 7 5.0
2 1.9 0.0 4 7 8.8
# lloc lpopt rc5 dvloc0
4 5 1.75 0.0
# l nproj debl
0 2 3.0
1 2 2.5
2 2 1.5
# icmod fcfact
3 5 1.4
# epsh1 epsh2 depsh
-12.0 12.0 0.02
# rlmax drl
6.0 0.01
 0
]]>
</input-file>
</provenance>
<pseudo-atom-spec atomic-label="Ge" atomic-number="32" z-pseudo="14"
 flavor="Hamann&apos;s oncvpsp" relativity="scalar" spin-dft="no"
 core-corrections="yes">
<annotation pseudo-energy="-79.7486256197" />
<exchange-correlation>
<annotation oncvpsp-xc-code="4" oncvpsp-xc-type="GGA -- Perdew-Burke-Ernzerhof" />
<libxc-info number-of-functionals="2">
<functional name="Perdew, Burke &amp; Ernzerhof (GGA)" type="exchange" id="101" />
<functional name="Perdew, Burke &amp; Ernzerhof (GGA)" type="correlation"
 id="130" />
</libxc-info>
</exchange-correlation>
<valence-configuration total-valence-charge="14">
<shell n="3" l="d" occupation="10" />
<shell n="4" l="s" occupation="2" />
<shell n="4" l="p" occupation="2" />
</valence-configuration>
</pseudo-atom-spec>
<grid npts="457">
<annotation type="sampled from oncvpsp log grid"
 recipe="r(i:1..N) = r1*exp(a*(i-1)) + r=0; resampled"
 recipe-cont="r1: scale; a: step" scale="0.156250000000E-04"
 step="0.119285708653E-01" delta="0.500000000000E-02" rmax="44.0106814606" />
<grid-data>
  0.000000000000E+00  5.025601837514E-03  1.003824527536E-02  1.505896861607E-02
  2.029121445031E-02  2.545292972101E-02  3.080533800935E-02  3.597266729221E-02
  4.101646976877E-02  4.621291924683E-02  5.145031239924E-02  5.660204419540E-02
  6.226962009944E-02  6.769238310509E-02  7.271481084123E-02  7.810987696307E-02
  8.390522932815E-02  8.906182522060E-02  9.453533200659E-02  1.003452262006E-01
  1.065121812926E-01  1.117175309401E-01  1.171772708801E-01  1.229038334035E-01
  1.289102583787E-01  1.352102229449E-01  1.418180726557E-01  1.469850337403E-01
  1.523402464797E-01  1.578905695834E-01  1.636431116494E-01  1.696052402683E-01
  1.757845914596E-01  1.821890794514E-01  1.888269068167E-01  1.957065749787E-01
  2.028368950993E-01  2.102269993637E-01  2.153027200364E-01  2.205009889089E-01
  2.258247647852E-01  2.312770779061E-01  2.368610316751E-01  2.425798044239E-01
  2.484366512219E-01  2.544349057290E-01  2.605779820929E-01  2.668693768925E-01
  2.733126711282E-01  2.799115322600E-01  2.866697162948E-01  2.935910699251E-01
  3.006795327173E-01  3.079391393553E-01  3.153740219359E-01  3.229884123215E-01
  3.307866445486E-01  3.387731572945E-01  3.469524964043E-01  3.553293174774E-01
  3.639083885186E-01  3.726945926510E-01  3.816929308960E-01  3.909085250195E-01
  4.003466204476E-01  4.100125892517E-01  4.199119332066E-01  4.249508764051E-01
  4.300502869219E-01  4.352108903650E-01  4.404334210494E-01  4.457186221020E-01
  4.510672455672E-01  4.564800525140E-01  4.619578131442E-01  4.675013069019E-01
  4.731113225847E-01  4.787886584557E-01  4.845341223572E-01  4.903485318255E-01
  4.962327142074E-01  5.021875067779E-01  5.082137568592E-01  5.143123219415E-01
  5.204840698048E-01  5.267298786425E-01  5.330506371862E-01  5.394472448324E-01
  5.459206117704E-01  5.524716591117E-01  5.591013190210E-01  5.658105348493E-01
  5.726002612674E-01  5.794714644027E-01  5.864251219755E-01  5.934622234392E-01
  6.005837701205E-01  6.077907753619E-01  6.150842646662E-01  6.224652758422E-01
  6.299348591524E-01  6.374940774622E-01  6.451440063917E-01  6.528857344684E-01
  6.607203632820E-01  6.686490076414E-01  6.766727957331E-01  6.847928692819E-01
  6.930103837133E-01  7.013265083179E-01  7.097424264177E-01  7.182593355347E-01
  7.268784475611E-01  7.356009889318E-01  7.444282007990E-01  7.533613392086E-01
  7.624016752791E-01  7.715504953825E-01  7.808091013271E-01  7.901788105430E-01
  7.996609562695E-01  8.092568877447E-01  8.189679703977E-01  8.287955860424E-01
  8.387411330750E-01  8.488060266719E-01  8.589916989919E-01  8.692995993798E-01
  8.797311945724E-01  8.902879689072E-01  9.009714245341E-01  9.117830816285E-01
  9.227244786081E-01  9.337971723514E-01  9.450027384196E-01  9.563427712806E-01
  9.678188845360E-01  9.794327111504E-01  9.911859036842E-01  1.003080134528E+00
  1.015117096143E+00  1.027298501296E+00  1.039626083312E+00  1.052101596312E+00
  1.064726815468E+00  1.077503537253E+00  1.090433579700E+00  1.103518782657E+00
  1.116761008048E+00  1.130162140145E+00  1.143724085827E+00  1.157448774857E+00
  1.171338160155E+00  1.185394218077E+00  1.199618948694E+00  1.214014376078E+00
  1.228582548591E+00  1.243325539174E+00  1.258245445644E+00  1.273344390992E+00
  1.288624523684E+00  1.304088017968E+00  1.319737074184E+00  1.335573919074E+00
  1.351600806103E+00  1.367820015776E+00  1.384233855965E+00  1.400844662237E+00
  1.417654798184E+00  1.434666655762E+00  1.451882655631E+00  1.469305247499E+00
  1.486936910469E+00  1.504780153394E+00  1.522837515235E+00  1.541111565418E+00
  1.559604904203E+00  1.578320163053E+00  1.597260005010E+00  1.616427125070E+00
  1.635824250571E+00  1.655454141578E+00  1.675319591277E+00  1.695423426372E+00
  1.715768507488E+00  1.736357729578E+00  1.757194022333E+00  1.778280350601E+00
  1.799619714808E+00  1.821215151386E+00  1.843069733203E+00  1.865186570001E+00
  1.887568808841E+00  1.910219634547E+00  1.933142270162E+00  1.956339977404E+00
  1.979816057133E+00  2.003573849818E+00  2.027616736016E+00  2.051948136848E+00
  2.076571514490E+00  2.101490372664E+00  2.126708257136E+00  2.152228756222E+00
  2.178055501297E+00  2.204192167312E+00  2.230642473320E+00  2.257410183000E+00
  2.284499105196E+00  2.311913094458E+00  2.339656051592E+00  2.367731924211E+00
  2.396144707301E+00  2.424898443789E+00  2.453997225114E+00  2.483445191816E+00
  2.513246534117E+00  2.543405492527E+00  2.573926358437E+00  2.604813474738E+00
  2.636071236435E+00  2.667704091273E+00  2.699716540368E+00  2.732113138852E+00
  2.764898496518E+00  2.798077278477E+00  2.831654205818E+00  2.865634056288E+00
  2.900021664964E+00  2.934821924943E+00  2.970039788043E+00  3.005680265499E+00
  3.041748428685E+00  3.078249409829E+00  3.115188402747E+00  3.152570663580E+00
  3.190401511543E+00  3.228686329682E+00  3.267430565638E+00  3.306639732426E+00
  3.346319409215E+00  3.386475242125E+00  3.427112945031E+00  3.468238300371E+00
  3.509857159976E+00  3.551975445895E+00  3.594599151246E+00  3.637734341061E+00
  3.681387153154E+00  3.725563798992E+00  3.770270564579E+00  3.815513811354E+00
  3.861299977091E+00  3.907635576816E+00  3.954527203737E+00  4.001981530182E+00
  4.050005308545E+00  4.098605372247E+00  4.147788636714E+00  4.197562100355E+00
  4.247932845559E+00  4.298908039706E+00  4.350494936182E+00  4.402700875416E+00
  4.455533285921E+00  4.508999685352E+00  4.563107681576E+00  4.617864973755E+00
  4.673279353440E+00  4.729358705682E+00  4.786111010150E+00  4.843544342272E+00
  4.901666874379E+00  4.960486876872E+00  5.020012719394E+00  5.080252872027E+00
  5.141215906491E+00  5.202910497369E+00  5.265345423337E+00  5.328529568417E+00
  5.392471923238E+00  5.457181586317E+00  5.522667765353E+00  5.588939778537E+00
  5.656007055880E+00  5.723879140550E+00  5.792565690237E+00  5.862076478520E+00
  5.932421396262E+00  6.003610453017E+00  6.075653778453E+00  6.148561623795E+00
  6.222344363280E+00  6.297012495640E+00  6.372576645587E+00  6.449047565334E+00
  6.526436136118E+00  6.604753369752E+00  6.684010410189E+00  6.764218535111E+00
  6.845389157533E+00  6.927533827423E+00  7.010664233352E+00  7.094792204152E+00
  7.179929710602E+00  7.266088867129E+00  7.353281933535E+00  7.441521316737E+00
  7.530819572538E+00  7.621189407409E+00  7.712643680297E+00  7.805195404461E+00
  7.898857749315E+00  7.993644042306E+00  8.089567770814E+00  8.186642584064E+00
  8.284882295073E+00  8.384300882613E+00  8.484912493205E+00  8.586731443123E+00
  8.689772220441E+00  8.794049487086E+00  8.899578080931E+00  9.006373017902E+00
  9.114449494117E+00  9.223822888046E+00  9.334508762703E+00  9.446522867855E+00
  9.559881142270E+00  9.674599715977E+00  9.790694912569E+00  9.908183251519E+00
  1.002708145054E+01  1.014740642794E+01  1.026917530508E+01  1.039240540874E+01
  1.051711427365E+01  1.064331964493E+01  1.077103948067E+01  1.090029195444E+01
  1.103109545789E+01  1.116346860338E+01  1.129743022662E+01  1.143299938934E+01
  1.157019538202E+01  1.170903772660E+01  1.184954617932E+01  1.199174073347E+01
  1.213564162227E+01  1.228126932174E+01  1.242864455360E+01  1.257778828824E+01
  1.272872174770E+01  1.288146640868E+01  1.303604400558E+01  1.319247653365E+01
  1.335078625205E+01  1.351099568708E+01  1.367312763532E+01  1.383720516694E+01
  1.400325162895E+01  1.417129064849E+01  1.434134613628E+01  1.451344228991E+01
  1.468760359739E+01  1.486385484056E+01  1.504222109865E+01  1.522272775183E+01
  1.540540048485E+01  1.559026529067E+01  1.577734847416E+01  1.596667665585E+01
  1.615827677572E+01  1.635217609703E+01  1.654840221019E+01  1.674698303671E+01
  1.694794683315E+01  1.715132219515E+01  1.735713806149E+01  1.756542371823E+01
  1.777620880285E+01  1.798952330849E+01  1.820539758819E+01  1.842386235925E+01
  1.864494870756E+01  1.886868809205E+01  1.909511234915E+01  1.932425369734E+01
  1.955614474171E+01  1.979081847861E+01  2.002830830035E+01  2.026864799996E+01
  2.051187177596E+01  2.075801423727E+01  2.100711040812E+01  2.125919573301E+01
  2.151430608181E+01  2.177247775479E+01  2.203374748785E+01  2.229815245770E+01
  2.256573028719E+01  2.283651905064E+01  2.311055727925E+01  2.338788396660E+01
  2.366853857420E+01  2.395256103709E+01  2.423999176953E+01  2.453087167077E+01
  2.482524213082E+01  2.512314503639E+01  2.542462277682E+01  2.572971825015E+01
  2.603847486915E+01  2.635093656758E+01  2.666714780639E+01  2.698715358007E+01
  2.731099942303E+01  2.763873141610E+01  2.797039619310E+01  2.830604094741E+01
  2.864571343878E+01  2.898946200005E+01  2.933733554405E+01  2.968938357058E+01
  3.004565617342E+01  3.040620404750E+01  3.077107849607E+01  3.114033143803E+01
  3.151401541528E+01  3.189218360027E+01  3.227488980347E+01  3.266218848111E+01
  3.305413474289E+01  3.345078435980E+01  3.385219377212E+01  3.425842009738E+01
  3.466952113855E+01  3.508555539221E+01  3.550658205692E+01  3.593266104160E+01
  3.636385297410E+01  3.680021920979E+01  3.724182184031E+01  3.768872370239E+01
  3.814098838682E+01  3.859868024746E+01  3.906186441043E+01  3.953060678336E+01
  4.000497406476E+01  4.048503375354E+01  4.097085415858E+01  4.146250440848E+01
  4.196005446138E+01  4.246357511492E+01  4.297313801630E+01  4.348881567249E+01
  4.401068146056E+01
</grid-data>
</grid>
<valence-charge total-charge="14" is-unscreening-charge="yes"
 rescaled-to-z-pseudo="no">
<radfunc>
<data npts="457">
  1.642137940121E-03  1.647295906029E-03  1.668487444924E-03  1.723092716792E-03
  1.846765203706E-03  2.079708029988E-03  2.498560736557E-03  3.145814821607E-03
  4.086965533623E-03  5.469228593946E-03  7.393984898869E-03  9.925726630141E-03
  1.359491787276E-02  1.813676911946E-02  2.339548959369E-02  3.034319503465E-02
  3.951976590797E-02  4.937525361911E-02  6.179285579726E-02  7.743043026679E-02
  9.711033873933E-02  1.164462145341E-01  1.396595839863E-01  1.675101181888E-01
  2.008999611490E-01  2.408983139007E-01  2.887695448241E-01  3.307272075746E-01
  3.786713647379E-01  4.334189057766E-01  4.958891975122E-01  5.671147848121E-01
  6.482526742152E-01  7.405960813414E-01  8.455864683044E-01  9.648256295962E-01
  1.100087501954E+00  1.253329273438E+00  1.366532962348E+00  1.489365781367E+00
  1.622554774735E+00  1.766867977253E+00  1.923114510911E+00  2.092144239874E+00
  2.274846899835E+00  2.472150608261E+00  2.685019652165E+00  2.914451439964E+00
  3.161472493928E+00  3.427133349850E+00  3.712502221361E+00  4.018657278017E+00
  4.346677379511E+00  4.697631103641E+00  5.072563903697E+00  5.472483232583E+00
  5.898341477122E+00  6.351016557729E+00  6.831290067164E+00  7.339822848622E+00
  7.877127949512E+00  8.443540934242E+00  9.039187598813E+00  9.663949203407E+00
  1.031742542785E+01  1.099889536011E+01  1.170727695048E+01  1.207111252219E+01
  1.244108550468E+01  1.281694054762E+01  1.319839194695E+01  1.358512239355E+01
  1.397678175873E+01  1.437298592703E+01  1.477331568750E+01  1.517731569583E+01
  1.558449352002E+01  1.599431878350E+01  1.640622242007E+01  1.681959605606E+01
  1.723379153540E+01  1.764812060443E+01  1.806185477340E+01  1.847422537225E+01
  1.888442381873E+01  1.929160211691E+01  1.969487360450E+01  2.009331396696E+01
  2.048596253666E+01  2.087182389426E+01  2.124986978928E+01  2.161904139566E+01
  2.197825191697E+01  2.232638955427E+01  2.266232084813E+01  2.298489440382E+01
  2.329294500631E+01  2.358529812902E+01  2.386077483674E+01  2.411819707980E+01
  2.435639337235E+01  2.457420484345E+01  2.477049164476E+01  2.494413969378E+01
  2.509406772577E+01  2.521923462232E+01  2.531864697813E+01  2.539136686169E+01
  2.543651971920E+01  2.545330236473E+01  2.544099099324E+01  2.539894914725E+01
  2.532663556139E+01  2.522361180424E+01  2.508954963099E+01  2.492423795662E+01
  2.472758935516E+01  2.449964598793E+01  2.424058486193E+01  2.395072231904E+01
  2.363051765743E+01  2.328057578917E+01  2.290164884184E+01  2.249463661773E+01
  2.206058583216E+01  2.160068806158E+01  2.111627634396E+01  2.060882038750E+01
  2.007992035885E+01  1.953129923970E+01  1.896479375935E+01  1.838234393142E+01
  1.778598124468E+01  1.717781558080E+01  1.656002095498E+01  1.593482019899E+01
  1.530446872964E+01  1.467123756749E+01  1.403739579244E+01  1.340519264113E+01
  1.277683946825E+01  1.215449180695E+01  1.154023177318E+01  1.093605106470E+01
  1.034383480574E+01  9.765346484470E+00  9.202214220578E+00  8.655918585271E+00
  8.127782175273E+00  7.618961116547E+00  7.130438642396E+00  6.663020855101E+00
  6.217334740886E+00  5.793828465641E+00  5.392773934441E+00  5.014271552753E+00
  4.658257082332E+00  4.324510441738E+00  4.012666261288E+00  3.722225966492E+00
  3.452571133787E+00  3.202977838744E+00  2.972631700829E+00  2.760643320739E+00
  2.566063806875E+00  2.387900096469E+00  2.225129794159E+00  2.076715275627E+00
  1.941616835436E+00  1.818804695124E+00  1.707269728520E+00  1.606032804473E+00
  1.514152691016E+00  1.430732507697E+00  1.354924752739E+00  1.285934967428E+00
  1.223024130379E+00  1.165509898289E+00  1.112766826854E+00  1.064225715617E+00
  1.019372223816E+00  9.777449014256E-01  9.389327713889E-01  9.025725866352E-01
  8.683458700760E-01  8.359758286359E-01  8.052242147366E-01  7.758881915817E-01
  7.477972430062E-01  7.208101552414E-01  6.948120372686E-01  6.697112275355E-01
  6.454361783586E-01  6.219327521696E-01  5.991611081872E-01  5.770901631912E-01
  5.556917461637E-01  5.349396099421E-01  5.148100433067E-01  4.952812886468E-01
  4.763334210121E-01  4.579481693155E-01  4.401087537721E-01  4.227997333362E-01
  4.060068629021E-01  3.897169601087E-01  3.739177815390E-01  3.585979080771E-01
  3.437466391612E-01  3.293538956452E-01  3.154101309637E-01  3.019062502817E-01
  2.888335372918E-01  2.761835883203E-01  2.639482533652E-01  2.521195837542E-01
  2.406897860125E-01  2.296511815988E-01  2.189961721413E-01  2.087172098119E-01
  1.988067724790E-01  1.892573432893E-01  1.800613943181E-01  1.712113739757E-01
  1.626996978172E-01  1.545187424466E-01  1.466608422082E-01  1.391182883680E-01
  1.318833305043E-01  1.249481798377E-01  1.183050142459E-01  1.119459847238E-01
  1.058632230602E-01  1.000488505221E-01  9.449498734769E-02  8.919376286633E-02
  8.413732607703E-02  7.931785653056E-02  7.472757537501E-02  7.035875643685E-02
  6.620373722274E-02  6.225492973946E-02  5.850483104078E-02  5.494603342150E-02
  5.157123418898E-02  4.837324495267E-02  4.534500038139E-02  4.247956638534E-02
  3.977014769148E-02  3.721009478460E-02  3.479291019535E-02  3.251225412271E-02
  3.036194938414E-02  2.833598569242E-02  2.642852326313E-02  2.463389576134E-02
  2.294661260029E-02  2.136136060890E-02  1.987300508798E-02  1.847659027833E-02
  1.716733926659E-02  1.594065335691E-02  1.479211093841E-02  1.371746588011E-02
  1.271264548626E-02  1.177374804573E-02  1.089704000976E-02  1.007895283293E-02
  9.316079511554E-03  8.605170854078E-03  7.943131517038E-03  7.327015839477E-03
  6.754023507782E-03  6.221495081600E-03  5.726907410225E-03  5.267868967318E-03
  4.842115130263E-03  4.447503428787E-03  4.082008785730E-03  3.743718771114E-03
  3.430828888871E-03  3.141637913798E-03  2.874543294600E-03  2.628036637105E-03
  2.400699280115E-03  2.191197974713E-03  1.998280676296E-03  1.820772457152E-03
  1.657571545981E-03  1.507645499423E-03  1.370027509482E-03  1.243812849501E-03
  1.128155460359E-03  1.022264677516E-03  9.254020986849E-04  8.368785910701E-04
  7.560514364118E-04  6.823216114117E-04  6.151312005748E-04  5.539609380165E-04
  4.983278743834E-04  4.477831647174E-04  4.019099728382E-04  3.603214876400E-04
  3.226590465852E-04  2.885903616167E-04  2.578078427164E-04  2.300270143813E-04
  2.049850203818E-04  1.824392122928E-04  1.621658174436E-04  1.439586821129E-04
  1.276280859885E-04  1.129996241161E-04  9.991315277402E-05  8.822179591471E-05
  7.779100905064E-05  6.849769751452E-05  6.022938669833E-05  5.288344094426E-05
  4.636632958662E-05  4.059293726314E-05  3.548591640956E-05  3.097508010141E-05
  2.699683323212E-05  2.349364019949E-05  2.041352737063E-05  1.770961865608E-05
  1.533970258792E-05  1.326582935293E-05  1.145393628184E-05  9.873500341129E-06
  8.497216215919E-06  7.300698611579E-06  6.262207439736E-06  5.362394591196E-06
  4.584071035173E-06  3.911993021282E-06  3.332666198582E-06  2.834166504618E-06
  2.405976717193E-06  2.038837602457E-06  1.724612634823E-06  1.456165307119E-06
  1.227248093098E-06  1.032402168771E-06  8.668670437632E-07  7.264992988356E-07
  6.076996705337E-07  5.073477684898E-07  4.227437548675E-07  3.515563586543E-07
  2.917766397343E-07  2.416769587271E-07  1.997746482992E-07  1.647999198951E-07
  1.356675764840E-07  1.114521368707E-07  9.136601031726E-08  7.474039161203E-08
  6.100857627224E-08  4.969142328333E-08  4.038471865560E-08  3.274821715618E-08
  2.649616188362E-08  2.138910194953E-08  1.722684747542E-08  1.384241847403E-08
  1.109686003792E-08  8.874810684087E-09  7.080723784424E-09  5.635653833871E-09
  4.474529954625E-09  3.543848592008E-09  2.799725907635E-09  2.206257999768E-09
  1.734143857163E-09  1.359531956147E-09  1.063056711989E-09  8.290356621323E-10
  6.448023533088E-10  5.001534856556E-10  3.868919891640E-10  2.984504211948E-10
  2.295814244944E-10  1.761040151322E-10  1.346962172527E-10  1.027260610202E-10
  7.811424273120E-11  5.922283963045E-11  4.476540137558E-11  3.373452743988E-11
  2.534370458784E-11  1.898073813572E-11  1.417058015010E-11  1.054575026630E-11
  7.822871941587E-12  5.784118684422E-12  4.262589746783E-12  3.130820359594E-12
  2.291784193298E-12  1.671870772400E-12  1.215422685351E-12  8.805005253247E-13
  6.356108776732E-13  4.571871140225E-13  3.276565871831E-13  2.339629853823E-13
  1.664407107204E-13  1.179605290412E-13  8.328349605675E-14  5.857420016856E-14
  4.103541401833E-14  2.863491514462E-14  1.990201115572E-14  1.377656991171E-14
  9.497452701989E-15  6.520391239557E-15  4.457783348983E-15  3.034737212472E-15
  2.057111473818E-15  1.388374626891E-15  9.329209367561E-16  6.240929620085E-16
  4.156202145583E-16  2.755264759396E-16  1.818131859494E-16  1.194149048137E-16
  7.806174346018E-17  5.078548338508E-17  3.288041323919E-17  2.118388362908E-17
  1.358057656292E-17  8.662604092106E-18  5.497548168337E-18  3.470975292604E-18
  2.180046122950E-18  0.000000000000E+00  0.000000000000E+00  0.000000000000E+00
  0.000000000000E+00  0.000000000000E+00  0.000000000000E+00  0.000000000000E+00
  0.000000000000E+00  0.000000000000E+00  0.000000000000E+00  0.000000000000E+00
  0.000000000000E+00  0.000000000000E+00  0.000000000000E+00  0.000000000000E+00
  0.000000000000E+00  0.000000000000E+00  0.000000000000E+00  0.000000000000E+00
  0.000000000000E+00
</data>
</radfunc>
</valence-charge>
<pseudocore-charge matching-radius="0.684792869282"
 number-of-continuous-derivatives="4">
<annotation model-charge-form="Teter function with specified parameters" />
<radfunc>
<data npts="290">
  1.287746503270E+02  1.287634706583E+02  1.287300523042E+02  1.286743037917E+02
  1.285925130937E+02  1.284881710591E+02  1.283552206231E+02  1.282030250601E+02
  1.280319537543E+02  1.278325328336E+02  1.276078485064E+02  1.273637489609E+02
  1.270689033872E+02  1.267611579239E+02  1.264539225267E+02  1.261002717620E+02
  1.256933469224E+02  1.253079362254E+02  1.248750229124E+02  1.243889408603E+02
  1.238433987671E+02  1.233594932087E+02  1.228291792734E+02  1.222482307769E+02
  1.216120837705E+02  1.209158196865E+02  1.201541500439E+02  1.195365784142E+02
  1.188764967972E+02  1.181712420970E+02  1.174180248433E+02  1.166139297710E+02
  1.157559177466E+02  1.148408292900E+02  1.138653899721E+02  1.128262179997E+02
  1.117198343340E+02  1.105426757228E+02  1.097167929751E+02  1.088567532483E+02
  1.079614615309E+02  1.070298199257E+02  1.060607315929E+02  1.050531051589E+02
  1.040058596207E+02  1.029179297791E+02  1.017882722324E+02  1.006158719614E+02
  9.939974953570E+01  9.813896897084E+01  9.683264626060E+01  9.547995860857E+01
  9.408015437664E+01  9.263256376417E+01  9.113661022434E+01  8.959182261678E+01
  8.799784808613E+01  8.635446564515E+01  8.466160042839E+01  8.291933856755E+01
  8.112794262313E+01  7.928786748774E+01  7.739977665536E+01  7.546455872728E+01
  7.348334399953E+01  7.145752094819E+01  6.938875239912E+01  6.833886207043E+01
  6.727899113574E+01  6.620943142233E+01  6.513049466505E+01  6.404251289914E+01
  6.294583882672E+01  6.184084615381E+01  6.072792989457E+01  5.960750663951E+01
  5.848001478421E+01  5.734591471479E+01  5.620568894663E+01  5.505984221235E+01
  5.390890149530E+01  5.275341600441E+01  5.159395708659E+01  5.043111807229E+01
  4.926551405047E+01  4.809778156850E+01  4.692857825322E+01  4.575858234884E+01
  4.458849216794E+01  4.341902545156E+01  4.225091863469E+01  4.108492601373E+01
  3.992181881239E+01  3.876238414326E+01  3.760742386205E+01  3.645775331226E+01
  3.531419995831E+01  3.417760190547E+01  3.304880630583E+01  3.192866764963E+01
  3.081804594235E+01  2.971780476830E+01  2.862880924244E+01  2.755192385284E+01
  2.648801019708E+01  2.543792461680E+01  2.440251573566E+01  2.338262190687E+01
  2.237906857761E+01  2.139266557881E+01  2.042420434978E+01  1.947445510853E+01
  1.854416397963E+01  1.763405009294E+01  1.674480266745E+01  1.587707809584E+01
  1.503149704660E+01  1.420864160155E+01  1.340905244765E+01  1.263322614322E+01
  1.188161247924E+01  1.115461195755E+01  1.045257340804E+01  9.775791767890E+00
  9.124506045568E+00  8.498897493143E+00  7.899088009733E+00  7.325138798882E+00
  6.777049301923E+00  6.254756428435E+00  5.758134103720E+00  5.286993151649E+00
  4.841081529346E+00  4.420084927969E+00  4.023627751270E+00  3.651274480721E+00
  3.302531432729E+00  2.976848909940E+00  2.673623744712E+00  2.392202228752E+00
  2.131883418489E+00  1.891922801214E+00  1.671536302286E+00  1.469904608890E+00
  1.286177781068E+00  1.119480115912E+00  9.689152262832E-01  8.335712909749E-01
  7.125264292346E-01  6.048541489188E-01  5.096288144603E-01  4.259310783600E-01
  3.528532181599E-01  2.895043199193E-01  2.350152491727E-01  1.885433512679E-01
  1.492768249347E-01  1.164387159383E-01  8.929048176649E-02  6.713508346064E-02
  4.931956691518E-02  3.523710315928E-02  2.432846522535E-02  1.608292806810E-02
  1.003858748093E-02  5.782103879120E-03  2.947886975479E-03  1.216747529348E-03
  3.140522558734E-04  7.427372758326E-06  1.040648682614E-04  4.476931291379E-04
  9.152798158463E-04  1.413539581539E-03  1.875322200501E-03  2.255957742744E-03
  2.529634498827E-03  2.685882378142E-03  2.726229498852E-03  2.661092755463E-03
  2.506954463843E-03  2.283866991051E-03  2.013315897477E-03  1.716459932563E-03
  1.412753664958E-03  1.118946060369E-03  8.484364290531E-04  6.109583277741E-04
  4.125526670693E-04  2.557838399508E-04  1.401474719247E-04  6.261561598237E-05
  1.826498573427E-05  9.361128967077E-07  3.875975864818E-06  2.032338633497E-05
  4.400483190145E-05  6.951804334379E-05  9.259070066689E-05  1.102117869188E-04
  1.206425188244E-04  1.233219469976E-04  1.186887304103E-04  1.079448791329E-04
  9.278921178161E-05  7.514785280867E-05  5.692644821992E-05  3.980423264414E-05
  2.508411622529E-05  1.360617232715E-05  5.724956317984E-06  1.344635327860E-06
  5.626311725494E-10  9.721715259165E-07  3.410204092313E-06  6.461435333986E-06
  9.376087862921E-06  1.158673151311E-05  1.275212657920E-05  1.276458257344E-05
  1.172430805574E-05  9.888303356402E-06  7.604100221600E-06  5.239772463518E-06
  3.121053777283E-06  1.484271717992E-06  4.505305620077E-07  2.270474255423E-08
  0.000000000000E+00  0.000000000000E+00  0.000000000000E+00  0.000000000000E+00
  0.000000000000E+00  0.000000000000E+00  0.000000000000E+00  0.000000000000E+00
  0.000000000000E+00  0.000000000000E+00  0.000000000000E+00  0.000000000000E+00
  0.000000000000E+00  0.000000000000E+00  0.000000000000E+00  0.000000000000E+00
  0.000000000000E+00  0.000000000000E+00  0.000000000000E+00  0.000000000000E+00
  0.000000000000E+00  0.000000000000E+00  0.000000000000E+00  0.000000000000E+00
  0.000000000000E+00  0.000000000000E+00  0.000000000000E+00  0.000000000000E+00
  0.000000000000E+00  0.000000000000E+00  0.000000000000E+00  0.000000000000E+00
  0.000000000000E+00  0.000000000000E+00  0.000000000000E+00  0.000000000000E+00
  0.000000000000E+00  0.000000000000E+00  0.000000000000E+00  0.000000000000E+00
  0.000000000000E+00  0.000000000000E+00  0.000000000000E+00  0.000000000000E+00
  0.000000000000E+00  0.000000000000E+00  0.000000000000E+00  0.000000000000E+00
  0.000000000000E+00  0.000000000000E+00  0.000000000000E+00  0.000000000000E+00
  0.000000000000E+00  0.000000000000E+00  0.000000000000E+00  0.000000000000E+00
  0.000000000000E+00  0.000000000000E+00  0.000000000000E+00  0.000000000000E+00
  0.000000000000E+00  0.000000000000E+00
</data>
</radfunc>
</pseudocore-charge>
<semilocal-potentials set="scalar_relativistic">
<slps n="4" l="s" rc="1.91021963455" eref="-0.431123766989">
<radfunc>
<data npts="290">
  6.977084463182E+01  6.970958132266E+01  6.952693634571E+01  6.922385686346E+01
  6.878280219632E+01  6.822627450581E+01  6.752693868126E+01  6.673952267666E+01
  6.587077156884E+01  6.487921656498E+01  6.378843779148E+01  6.263393035453E+01
  6.128005168705E+01  5.991222945914E+01  5.859062096183E+01  5.712100615947E+01
  5.549473148188E+01  5.401468415212E+01  5.241796764574E+01  5.070294504672E+01
  4.886953324874E+01  4.731864262497E+01  4.569481441748E+01  4.400069566574E+01
  4.223983621482E+01  4.041670437189E+01  3.853667964631E+01  3.709305839502E+01
  3.562388498773E+01  3.413234683393E+01  3.262184821191E+01  3.109598217200E+01
  2.955849868438E+01  2.801326960961E+01  2.646425118309E+01  2.491544479684E+01
  2.337085692611E+01  2.183445908325E+01  2.081667271205E+01  1.980538957218E+01
  1.880171167538E+01  1.780670992064E+01  1.682142001103E+01  1.584683871068E+01
  1.488392047080E+01  1.393357444775E+01  1.299666193125E+01  1.207399419453E+01
  1.116633077310E+01  1.027437817318E+01  9.398789005316E+00  8.540161534296E+00
  7.699039631235E+00  6.875913110036E+00  6.071218426453E+00  5.285339714862E+00
  4.518610135155E+00  3.771313500009E+00  3.043686151166E+00  2.335919052253E+00
  1.648160065120E+00  9.805163765395E-01  3.330570425280E-01 -2.941843816786E-01
 -9.012071568220E-01 -1.488040649367E+00 -2.054741623612E+00 -2.330566986448E+00
 -2.601391562327E+00 -2.867228967942E+00 -3.128094040649E+00 -3.384002760962E+00
 -3.634972176793E+00 -3.881020329600E+00 -4.122166182666E+00 -4.358429551654E+00
 -4.589831037707E+00 -4.816391963213E+00 -5.038134310635E+00 -5.255080664399E+00
 -5.467254156423E+00 -5.674678415310E+00 -5.877377519691E+00 -6.075375956006E+00
 -6.268698581107E+00 -6.457370590095E+00 -6.641417489837E+00 -6.820865078596E+00
 -6.995739432297E+00 -7.166066897920E+00 -7.331874094528E+00 -7.493187922469E+00
 -7.650035581258E+00 -7.802444596604E+00 -7.950442857051E+00 -8.094058660580E+00
 -8.233320771454E+00 -8.368258487457E+00 -8.498901717537E+00 -8.625281069649E+00
 -8.747427948382E+00 -8.865374661735E+00 -8.979154536062E+00 -9.088802037969E+00
 -9.194352901569E+00 -9.295844259247E+00 -9.393314773721E+00 -9.486804768929E+00
 -9.576356357050E+00 -9.662013558752E+00 -9.743822413677E+00 -9.821831078138E+00
 -9.896089907081E+00 -9.966651517523E+00 -1.003357083090E+01 -1.009690509210E+01
 -1.015671386337E+01 -1.021305899155E+01 -1.026600454758E+01 -1.031561673753E+01
 -1.036196378464E+01 -1.040511578191E+01 -1.044514451487E+01 -1.048212325388E+01
 -1.051612651484E+01 -1.054722978673E+01 -1.057550922360E+01 -1.060104129759E+01
 -1.062390240875E+01 -1.064416844616E+01 -1.066191429417E+01 -1.067721327639E+01
 -1.069013652989E+01 -1.070075230202E+01 -1.070912516300E+01 -1.071531512965E+01
 -1.071937669890E+01 -1.072135779514E+01 -1.072129864358E+01 -1.071923059214E+01
 -1.071517491846E+01 -1.070914167504E+01 -1.070112864469E+01 -1.069112049831E+01
 -1.067908826482E+01 -1.066498923634E+01 -1.064876743487E+01 -1.063035475612E+01
 -1.060967287728E+01 -1.058663596700E+01 -1.056115416826E+01 -1.053313774432E+01
 -1.050250169384E+01 -1.046917056581E+01 -1.043308315206E+01 -1.039419671441E+01