<?xml version="1.0" encoding="UTF-8" ?>
<psml version="1.1" energy_unit="hartree" length_unit="bohr"
 uuid="700c13b0-be45-11e7-7225-38e7f4f86d46"
 xmlns="http://esl.cecam.org/PSML/ns/1.1">
<provenance creator="ONCVPSP-3.3.0+psml-3.3.0-73 (scalar-relativistic)"
 date="2017-10-31">
<annotation action="semilocal-pseudopotential-generation"
 action-cont="projectors-generation" />
<input-file name="oncvpsp-input">
<![CDATA[# atsym z nc nv iexc psfile
Xe 54 9 2 4 upf
# n l f
1 0 2.0
2 0 2.0
2 1 6.0
3 0 2.0
3 1 6.0
3 2 10.0
4 0 2.0
4 1 6.0
4 2 10.0
5 0 2.0
5 1 6.0
# lmax
2
# l rc ep ncon nbas qcut
0 2.0 0.0 4 7 4.0
1 1.8 0.0 4 8 6.0
2 2.2 0.1 4 7 5.5
# lloc lpopt rc5 dvloc0
4 5 1.8 0.0
# l nproj debl
0 2 4.0
1 2 3.0
2 2 4.0
# icmod fcfact
3 8 1.23
# epsh1 epsh2 depsh
-12.0 12.0 0.02
# rlmax drl
6.0 0.01
 0
]]>
</input-file>
</provenance>
<pseudo-atom-spec atomic-label="Xe" atomic-number="54" z-pseudo="8"
 flavor="Hamann&apos;s oncvpsp" relativity="scalar" spin-dft="no"
 core-corrections="yes">
<annotation pseudo-energy="-15.7225448491" />
<exchange-correlation>
<annotation oncvpsp-xc-code="4" oncvpsp-xc-type="GGA -- Perdew-Burke-Ernzerhof" />
<libxc-info number-of-functionals="2">
<functional name="Perdew, Burke &amp; Ernzerhof (GGA)" type="exchange" id="101" />
<functional name="Perdew, Burke &amp; Ernzerhof (GGA)" type="correlation"
 id="130" />
</libxc-info>
</exchange-correlation>
<valence-configuration total-valence-charge="8">
<shell n="5" l="s" occupation="2" />
<shell n="5" l="p" occupation="6" />
</valence-configuration>
</pseudo-atom-spec>
<grid npts="457">
<annotation type="sampled from oncvpsp log grid"
 recipe="r(i:1..N) = r1*exp(a*(i-1)) + r=0; resampled"
 recipe-cont="r1: scale; a: step" scale="0.925925925926E-05"
 step="0.119285708653E-01" delta="0.500000000000E-02" rmax="44.0815505142" />
<grid-data>
  0.000000000000E+00  5.033694410375E-03  1.005440955457E-02  1.508321761245E-02
  2.032388877205E-02  2.549391579491E-02  3.085494290253E-02  3.603059297763E-02
  4.108251733498E-02  4.628733449663E-02  5.153316126297E-02  5.669318873521E-02
  6.236989096331E-02  6.780138607829E-02  7.283190127614E-02  7.823565490787E-02
  8.404033935153E-02  8.920523875257E-02  9.468755935905E-02  1.005068090479E-01
  1.066836945990E-01  1.118974262617E-01  1.173659578539E-01  1.231017416857E-01
  1.291178386233E-01  1.354279478297E-01  1.420464379586E-01  1.472217192426E-01
  1.525855553172E-01  1.581448159363E-01  1.639066211448E-01  1.698783503969E-01
  1.760676520084E-01  1.824824529513E-01  1.891309690069E-01  1.960217152880E-01
  2.031635171449E-01  2.105655214681E-01  2.156494154184E-01  2.208560549043E-01
  2.261884034939E-01  2.316494963079E-01  2.372424417467E-01  2.429704232603E-01
  2.488367011595E-01  2.548446144723E-01  2.609975828441E-01  2.672991084843E-01
  2.737527781595E-01  2.803622652354E-01  2.871313317672E-01  2.940638306414E-01
  3.011637077684E-01  3.084350043288E-01  3.158818590733E-01  3.235085106788E-01
  3.313193001606E-01  3.393186733437E-01  3.475111833929E-01  3.559014934047E-01
  3.644943790615E-01  3.732947313495E-01  3.823075593432E-01  3.915379930560E-01
  4.009912863604E-01  4.106728199783E-01  4.205881045438E-01  4.256351617983E-01
  4.307427837399E-01  4.359116971448E-01  4.411426375105E-01  4.464363491607E-01
  4.517935853506E-01  4.572151083748E-01  4.627016896753E-01  4.682541099514E-01
  4.738731592708E-01  4.795596371821E-01  4.853143528282E-01  4.911381250622E-01
  4.970317825629E-01  5.029961639537E-01  5.090321179211E-01  5.151405033362E-01
  5.213221893762E-01  5.275780556487E-01  5.339089923165E-01  5.403159002243E-01
  5.467996910270E-01  5.533612873193E-01  5.600016227672E-01  5.667216422404E-01
  5.735223019473E-01  5.804045695706E-01  5.873694244055E-01  5.944178574983E-01
  6.015508717883E-01  6.087694822498E-01  6.160747160368E-01  6.234676126292E-01
  6.309492239808E-01  6.385206146685E-01  6.461828620446E-01  6.539370563891E-01
  6.617843010658E-01  6.697257126786E-01  6.777624212307E-01  6.858955702855E-01
  6.941263171289E-01  7.024558329344E-01  7.108853029296E-01  7.194159265648E-01
  7.280489176836E-01  7.367855046958E-01  7.456269307521E-01  7.545744539212E-01
  7.636293473682E-01  7.727928995366E-01  7.820664143311E-01  7.914512113030E-01
  8.009486258387E-01  8.105600093487E-01  8.202867294609E-01  8.301301702145E-01
  8.400917322570E-01  8.501728330441E-01  8.603749070406E-01  8.706994059251E-01
  8.811477987962E-01  8.917215723818E-01  9.024222312504E-01  9.132512980254E-01
  9.242103136017E-01  9.353008373649E-01  9.465244474133E-01  9.578827407822E-01
  9.693773336716E-01  9.810098616757E-01  9.927819800158E-01  1.004695363776E+00
  1.016751708141E+00  1.028952728639E+00  1.041300161383E+00  1.053795763319E+00
  1.066441312479E+00  1.079238608229E+00  1.092189471528E+00  1.105295745186E+00
  1.118559294128E+00  1.131982005658E+00  1.145565789726E+00  1.159312579202E+00
  1.173224330153E+00  1.187303022115E+00  1.201550658380E+00  1.215969266280E+00
  1.230560897476E+00  1.245327628246E+00  1.260271559784E+00  1.275394818502E+00
  1.290699556324E+00  1.306187951000E+00  1.321862206412E+00  1.337724552889E+00
  1.353777247523E+00  1.370022574494E+00  1.386462845388E+00  1.403100399532E+00
  1.419937604327E+00  1.436976855579E+00  1.454220577846E+00  1.471671224780E+00
  1.489331279477E+00  1.507203254831E+00  1.525289693889E+00  1.543593170215E+00
  1.562116288258E+00  1.580861683717E+00  1.599832023922E+00  1.619030008209E+00
  1.638458368307E+00  1.658119868727E+00  1.678017307152E+00  1.698153514837E+00
  1.718531357016E+00  1.739153733300E+00  1.760023578099E+00  1.781143861036E+00
  1.802517587369E+00  1.824147798417E+00  1.846037571998E+00  1.868190022862E+00
  1.890608303137E+00  1.913295602774E+00  1.936255150008E+00  1.959490211808E+00
  1.983004094349E+00  2.006800143482E+00  2.030881745203E+00  2.055252326146E+00
  2.079915354060E+00  2.104874338308E+00  2.130132830368E+00  2.155694424332E+00
  2.181562757424E+00  2.207741510513E+00  2.234234408640E+00  2.261045221543E+00
  2.288177764202E+00  2.315635897372E+00  2.343423528141E+00  2.371544610478E+00
  2.400003145804E+00  2.428803183554E+00  2.457948821756E+00  2.487444207618E+00
  2.517293538109E+00  2.547501060566E+00  2.578071073293E+00  2.609007926173E+00
  2.640316021287E+00  2.671999813542E+00  2.704063811305E+00  2.736512577040E+00
  2.769350727965E+00  2.802582936700E+00  2.836213931941E+00  2.870248499124E+00
  2.904691481113E+00  2.939547778887E+00  2.974822352233E+00  3.010520220460E+00
  3.046646463106E+00  3.083206220663E+00  3.120204695311E+00  3.157647151655E+00
  3.195538917475E+00  3.233885384484E+00  3.272692009098E+00  3.311964313207E+00
  3.351707884966E+00  3.391928379585E+00  3.432631520140E+00  3.473823098382E+00
  3.515508975563E+00  3.557695083269E+00  3.600387424269E+00  3.643592073360E+00
  3.687315178240E+00  3.731562960379E+00  3.776341715904E+00  3.821657816494E+00
  3.867517710292E+00  3.913927922816E+00  3.960895057890E+00  4.008425798584E+00
  4.056526908167E+00  4.105205231065E+00  4.154467693838E+00  4.204321306164E+00
  4.254773161838E+00  4.305830439780E+00  4.357500405058E+00  4.409790409918E+00
  4.462707894837E+00  4.516260389575E+00  4.570455514250E+00  4.625300980421E+00
  4.680804592186E+00  4.736974247293E+00  4.793817938260E+00  4.851343753519E+00
  4.909559878561E+00  4.968474597104E+00  5.028096292269E+00  5.088433447777E+00
  5.149494649150E+00  5.211288584940E+00  5.273824047959E+00  5.337109936535E+00
  5.401155255773E+00  5.465969118842E+00  5.531560748268E+00  5.597939477248E+00
  5.665114750975E+00  5.733096127986E+00  5.801893281522E+00  5.871516000900E+00
  5.941974192911E+00  6.013277883226E+00  6.085437217825E+00  6.158462464439E+00
  6.232364014012E+00  6.307152382180E+00  6.382838210766E+00  6.459432269296E+00
  6.536945456527E+00  6.615388802005E+00  6.694773467629E+00  6.775110749241E+00
  6.856412078232E+00  6.938689023171E+00  7.021953291449E+00  7.106216730946E+00
  7.191491331717E+00  7.277789227698E+00  7.365122698430E+00  7.453504170812E+00
  7.542946220861E+00  7.633461575512E+00  7.725063114418E+00  7.817763871791E+00
  7.911577038252E+00  8.006515962711E+00  8.102594154264E+00  8.199825284115E+00
  8.298223187524E+00  8.397801865775E+00  8.498575488164E+00  8.600558394022E+00
  8.703765094750E+00  8.808210275887E+00  8.913908799198E+00  9.020875704788E+00
  9.129126213246E+00  9.238675727805E+00  9.349539836538E+00  9.461734314577E+00
  9.575275126352E+00  9.690178427868E+00  9.806460569002E+00  9.924138095830E+00
  1.004322775298E+01  1.016374648602E+01  1.028571144385E+01  1.040913998117E+01
  1.053404966095E+01  1.066045825688E+01  1.078838375596E+01  1.091784436103E+01
  1.104885849337E+01  1.118144479529E+01  1.131562213283E+01  1.145140959842E+01
  1.158882651361E+01  1.172789243177E+01  1.186862714095E+01  1.201105066664E+01
  1.215518327464E+01  1.230104547394E+01  1.244865801962E+01  1.259804191586E+01
  1.274921841885E+01  1.290220903988E+01  1.305703554835E+01  1.321371997493E+01
  1.337228461463E+01  1.353275203001E+01  1.369514505437E+01  1.385948679502E+01
  1.402580063656E+01  1.419411024420E+01  1.436443956713E+01  1.453681284194E+01
  1.471125459604E+01  1.488778965119E+01  1.506644312701E+01  1.524724044453E+01
  1.543020732987E+01  1.561536981782E+01  1.580275425564E+01  1.599238730671E+01
  1.618429595439E+01  1.637850750584E+01  1.657504959591E+01  1.677395019106E+01
  1.697523759335E+01  1.717894044447E+01  1.738508772981E+01  1.759370878256E+01
  1.780483328795E+01  1.801849128741E+01  1.823471318286E+01  1.845352974105E+01
  1.867497209795E+01  1.889907176312E+01  1.912586062428E+01  1.935537095177E+01
  1.958763540319E+01  1.982268702803E+01  2.006055927237E+01  2.030128598363E+01
  2.054490141544E+01  2.079144023242E+01  2.104093751521E+01  2.129342876539E+01
  2.154894991058E+01  2.180753730951E+01  2.206922775722E+01  2.233405849031E+01
  2.260206719219E+01  2.287329199850E+01  2.314777150248E+01  2.342554476051E+01
  2.370665129764E+01  2.399113111321E+01  2.427902468657E+01  2.457037298280E+01
  2.486521745860E+01  2.516360006810E+01  2.546556326892E+01  2.577115002815E+01
  2.608040382848E+01  2.639336867442E+01  2.671008909852E+01  2.703061016770E+01
  2.735497748971E+01  2.768323721959E+01  2.801543606622E+01  2.835162129902E+01
  2.869184075461E+01  2.903614284366E+01  2.938457655779E+01  2.973719147648E+01
  3.009403777420E+01  3.045516622749E+01  3.082062822222E+01  3.119047576088E+01
  3.156476147001E+01  3.194353860765E+01  3.232686107095E+01  3.271478340380E+01
  3.310736080464E+01  3.350464913430E+01  3.390670492391E+01  3.431358538300E+01
  3.472534840759E+01  3.514205258849E+01  3.556375721955E+01  3.599052230618E+01
  3.642240857386E+01  3.685947747674E+01  3.730179120646E+01  3.774941270094E+01
  3.820240565335E+01  3.866083452119E+01  3.912476453545E+01  3.959426170987E+01
  4.006939285039E+01  4.055022556459E+01  4.103682827137E+01  4.152927021063E+01
  4.202762145315E+01  4.253195291059E+01  4.304233634552E+01  4.355884438166E+01
  4.408155051424E+01
</grid-data>
</grid>
<valence-charge total-charge="8" is-unscreening-charge="yes"
 rescaled-to-z-pseudo="no">
<radfunc>
<data npts="457">
  1.054445261842E-02  1.055383806399E-02  1.058191316188E-02  1.062881508389E-02
  1.069777844744E-02  1.078601879132E-02  1.089887962442E-02  1.102866569213E-02
  1.117529920158E-02  1.134723818171E-02  1.154225945073E-02  1.175569892760E-02
  1.201569278390E-02  1.228961804699E-02  1.256570439892E-02  1.288674914224E-02
  1.326047886899E-02  1.361873653591E-02  1.402615099999E-02  1.448994554332E-02
  1.501851838289E-02  1.549454179658E-02  1.602401430547E-02  1.661346814620E-02
  1.727032612274E-02  1.800303673622E-02  1.882123131015E-02  1.949753425685E-02
  2.023328625920E-02  2.103425409824E-02  2.190682471703E-02  2.285807709095E-02
  2.389586257594E-02  2.502889466794E-02  2.626684918593E-02  2.762047597089E-02
  2.910172327174E-02  3.072387606419E-02  3.189082216993E-02  3.313170592715E-02
  3.445165968313E-02  3.585619383211E-02  3.735122459269E-02  3.894310362315E-02
  4.063864955834E-02  4.244518154999E-02  4.437055488887E-02  4.642319878342E-02
  4.861215636330E-02  5.094712696993E-02  5.343851078696E-02  5.609745585385E-02
  5.893590749329E-02  6.196666016947E-02  6.520341177850E-02  6.866082035400E-02
  7.235456315115E-02  7.630139805018E-02  8.051922719589E-02  8.502716276298E-02
  8.984559470741E-02  9.499626033231E-02  1.005023154608E-01  1.063884069694E-01
  1.126807463903E-01  1.194071842409E-01  1.265972846773E-01  1.303759340841E-01
  1.342823999992E-01  1.383208929665E-01  1.424957444433E-01  1.468114090194E-01
  1.512724665946E-01  1.558836245076E-01  1.606497196064E-01  1.655757202517E-01
  1.706667282413E-01  1.759279806426E-01  1.813648515218E-01  1.869828535515E-01
  1.927876394817E-01  1.987850034542E-01  2.049808821376E-01  2.113813556611E-01
  2.179926483163E-01  2.248211290002E-01  2.318733113617E-01  2.391558536146E-01
  2.466755579743E-01  2.544393696690E-01  2.624543754716E-01  2.707278016928E-01
  2.792670115680E-01  2.880795019643E-01  2.971728993237E-01  3.065549547545E-01
  3.162335381665E-01  3.262166313434E-01  3.365123198291E-01  3.471287834952E-01
  3.580742856473E-01  3.693571605114E-01  3.809857989320E-01  3.929686320981E-01
  4.053141131017E-01  4.180306961188E-01  4.311268129902E-01  4.446108469657E-01
  4.584911033649E-01  4.727757768958E-01  4.874729153619E-01  5.025903794827E-01
  5.181357985464E-01  5.341165216096E-01  5.505395639644E-01  5.674115485919E-01
  5.847386423379E-01  6.025264865585E-01  6.207801220051E-01  6.395039077511E-01
  6.587014339940E-01  6.783754286193E-01  6.985276574603E-01  7.191588182594E-01
  7.402684284096E-01  7.618547066394E-01  7.839144489086E-01  8.064428988858E-01
  8.294336135027E-01  8.528783242120E-01  8.767667947151E-01  9.010866760777E-01
  9.258233603090E-01  9.509598336417E-01  9.764765309169E-01  1.002351192641E+00
  1.028558726446E+00  1.055071074833E+00  1.081857091232E+00  1.108882426520E+00
  1.136109428260E+00  1.163497054993E+00  1.191000807969E+00  1.218572682704E+00
  1.246161142741E+00  1.273711117903E+00  1.301164029227E+00  1.328457842594E+00
  1.355527152855E+00  1.382303300019E+00  1.408714518732E+00  1.434686121969E+00
  1.460140719481E+00  1.484998471128E+00  1.509177374846E+00  1.532593588581E+00
  1.555161785116E+00  1.576795538351E+00  1.597407739282E+00  1.616911039612E+00
  1.635218320740E+00  1.652243185711E+00  1.667900471660E+00  1.682106780291E+00
  1.694781024036E+00  1.705844985689E+00  1.715223889563E+00  1.722846982418E+00
  1.728648122731E+00  1.732566377024E+00  1.734546622183E+00  1.734540152661E+00
  1.732505291332E+00  1.728408002369E+00  1.722222503837E+00  1.713931876736E+00
  1.703528665852E+00  1.691015466111E+00  1.676405486085E+00  1.659723077934E+00
  1.641004220571E+00  1.620296940163E+00  1.597661649596E+00  1.573171386261E+00
  1.546911925940E+00  1.518981749707E+00  1.489491841178E+00  1.458565293191E+00
  1.426336706440E+00  1.392950589877E+00  1.358556302705E+00  1.323301059694E+00
  1.287327750239E+00  1.250774936827E+00  1.213775423458E+00  1.176455542499E+00
  1.138934508598E+00  1.101323950125E+00  1.063727795100E+00  1.026243048812E+00
  9.889610318926E-01  9.519675173409E-01  9.153424260450E-01  8.791599152564E-01
  8.434883691113E-01  8.083904407870E-01  7.739231214712E-01  7.401378356887E-01
  7.070805606084E-01  6.747919669162E-01  6.433075788828E-01  6.126579510953E-01
  5.828688598518E-01  5.539615066347E-01  5.259527316328E-01  4.988552351948E-01
  4.726778052184E-01  4.474255485977E-01  4.231001249657E-01  3.996999810985E-01
  3.772205844739E-01  3.556546546095E-01  3.349923909392E-01  3.152216961170E-01
  2.963283937719E-01  2.782964398591E-01  2.611081268906E-01  2.447442803966E-01
  2.291844472065E-01  2.144070750697E-01  2.003896833750E-01  1.871090247627E-01
  1.745412375117E-01  1.626619886655E-01  1.514466079217E-01  1.408702123714E-01
  1.309078222233E-01  1.215344676877E-01  1.127252872315E-01  1.044556174404E-01
  9.670107474819E-02  8.943762930396E-02  8.264167126538E-02  7.629006980889E-02
  7.036022515589E-02  6.483011391681E-02  5.967832805764E-02  5.488410779578E-02
  5.042736873413E-02  4.628872354472E-02  4.244949851554E-02  3.889174527675E-02
  3.559824802510E-02  3.255252656705E-02  2.973883550294E-02  2.714215987445E-02
  2.474820759682E-02  2.254339899456E-02  2.051485375509E-02  1.865037560841E-02
  1.693843503253E-02  1.536815027452E-02  1.392926696492E-02  1.261213658963E-02
  1.140769406862E-02  1.030743467442E-02  9.303390506383E-03  8.388106718951E-03
  7.554617683896E-03  6.796423248428E-03  6.107465232737E-03  5.482104292753E-03
  4.915097256610E-03  4.401575026624E-03  3.937021122850E-03  3.517250929451E-03
  3.138391691370E-03  2.796863296201E-03  2.489359864718E-03  2.212832163376E-03
  1.964470843136E-03  1.741690501219E-03  1.542114555884E-03  1.363560918878E-03
  1.204028445868E-03  1.061684141762E-03  9.348510953425E-04  8.219971158633E-04
  7.217240432353E-04  6.327577028777E-04  5.539384762820E-04  4.842124586320E-04
  4.226231754011E-04  3.683038306170E-04  3.204700603792E-04  2.784131661800E-04
  2.414938035720E-04  2.091361027149E-04  1.808221982882E-04  1.560871471735E-04
  1.345142131709E-04  1.157304988217E-04  9.940290516234E-05  8.523440094588E-05
  7.296058352806E-05  6.234651425081E-05  5.318381176040E-05  4.528798728601E-05
  3.849600647953E-05  3.266406298763E-05  2.766554949390E-05  2.338921253773E-05
  1.973747798856E-05  1.662493462960E-05  1.397696388528E-05  1.172850430935E-05
  9.822940035294E-06  8.211102974450E-06  6.850379128658E-06  5.703909959699E-06
  4.739880325650E-06  3.930885051057E-06  3.253366741573E-06  2.687117981837E-06
  2.214841565869E-06  1.821762900260E-06  1.495289190541E-06  1.224710468906E-06
  1.000937946251E-06  8.162755724668E-07  6.642210659048E-07  5.392930257353E-07
  4.368810697775E-07  3.531162456403E-07  2.847592452438E-07  2.291042127092E-07
  1.838961740552E-07  1.472603350783E-07  1.176416922431E-07  9.375358146355E-08
  7.453395243008E-08  5.910830277421E-08  4.675833800592E-08  3.689554092793E-08
  2.903893923813E-08  2.279645333885E-08  1.784928900916E-08  1.393891253964E-08
  1.085621010534E-08  8.432489428758E-09  6.532030973876E-09  5.045938766137E-09
  3.887078147774E-09  2.985919989695E-09  2.287138673299E-09  1.746835056720E-09
  1.330276128405E-09  1.010060557136E-09  7.646342570654E-10  5.770927429718E-10
  4.342177601265E-10  3.257047047960E-10  2.435449432915E-10  1.815334979905E-10
  1.348778799272E-10  9.988826768282E-11  7.373289850857E-11  5.424556820385E-11
  3.977463289432E-11  2.906495554213E-11  2.116591695358E-11  1.535997823704E-11
  1.110739240017E-11  8.003561964366E-12  5.746264804608E-12  4.110553397797E-12
  2.929599515677E-12  2.080128884632E-12  1.471386426194E-12  1.036807174561E-12
  7.277529573055E-13  5.088203110189E-13  3.543389224631E-13  2.457686438069E-13
  1.697720727497E-13  1.167930251951E-13  8.001232574251E-14  5.458387915942E-14
  3.707808821469E-14  2.507802620282E-14  1.688767360721E-14  1.132201839648E-14
  7.556701368188E-15  5.020784422724E-15  3.320611383847E-15  2.185987415151E-15
  1.432306825507E-15  9.340253045863E-16  6.061644727157E-16  3.914770871945E-16
  2.515826702202E-16  1.608747046561E-16  1.023531736926E-16  6.478805024572E-17
  4.079827010609E-17  2.555728492567E-17  1.592525075062E-17  9.870262575380E-18
  6.084347212386E-18  3.730041675111E-18  2.274044362066E-18  1.378607010698E-18
  8.310145873602E-19  4.980503419315E-19  2.967587165082E-19  1.757793303927E-19
  1.034983948947E-19  6.057127365742E-20  0.000000000000E+00  0.000000000000E+00
  0.000000000000E+00  0.000000000000E+00  0.000000000000E+00  0.000000000000E+00
  0.000000000000E+00  0.000000000000E+00  0.000000000000E+00  0.000000000000E+00
  0.000000000000E+00  0.000000000000E+00  0.000000000000E+00  0.000000000000E+00
  0.000000000000E+00  0.000000000000E+00  0.000000000000E+00  0.000000000000E+00
  0.000000000000E+00  0.000000000000E+00  0.000000000000E+00  0.000000000000E+00
  0.000000000000E+00  0.000000000000E+00  0.000000000000E+00  0.000000000000E+00
  0.000000000000E+00  0.000000000000E+00  0.000000000000E+00  0.000000000000E+00
  0.000000000000E+00  0.000000000000E+00  0.000000000000E+00  0.000000000000E+00
  0.000000000000E+00  0.000000000000E+00  0.000000000000E+00  0.000000000000E+00
  0.000000000000E+00
</data>
</radfunc>
</valence-charge>
<pseudocore-charge matching-radius="1.40310039953"
 number-of-continuous-derivatives="4">
<annotation model-charge-form="Teter function with specified parameters" />
<radfunc>
<data npts="290">
  1.512601023232E+01  1.512560367716E+01  1.512438826316E+01  1.512236025493E+01
  1.511938386090E+01  1.511558503804E+01  1.511074176652E+01  1.510519342784E+01
  1.509895188167E+01  1.509166918769E+01  1.508345508781E+01  1.507452059280E+01
  1.506371392245E+01  1.505241713749E+01  1.504112137127E+01  1.502809711156E+01
  1.501308161215E+01  1.499883096664E+01  1.498279005735E+01  1.496473614329E+01
  1.494441935296E+01  1.492634949379E+01  1.490649393056E+01  1.488467879692E+01
  1.486071384425E+01  1.483439101367E+01  1.480548290843E+01  1.478195667364E+01
  1.475672391038E+01  1.472966393687E+01  1.470064801447E+01  1.466953888416E+01
  1.463619028837E+01  1.460044647999E+01  1.456214172064E+01  1.452109977129E+01
  1.447713337860E+01  1.443004376151E+01  1.439681196213E+01  1.436203308597E+01
  1.432563905526E+01  1.428755919186E+01  1.424772015878E+01  1.420604590524E+01
  1.416245761565E+01  1.411687366367E+01  1.406920957184E+01  1.401937797803E+01
  1.396728860953E+01  1.391284826604E+01  1.385596081276E+01  1.379652718494E+01
  1.373444540539E+01  1.366961061648E+01  1.360191512848E+01  1.353124848604E+01
  1.345749755481E+01  1.338054663041E+01  1.330027757215E+01  1.321656996376E+01
  1.312930130406E+01  1.303834723013E+01  1.294358177608E+01  1.284487767047E+01
  1.274210667570E+01  1.263513997270E+01  1.252384859450E+01  1.246654092806E+01
  1.240810391226E+01  1.234852161029E+01  1.228777817746E+01  1.222585788154E+01
  1.216274512404E+01  1.209842446255E+01  1.203288063421E+01  1.196609858023E+01
  1.189806347161E+01  1.182876073595E+01  1.175817608552E+01  1.168629554651E+01
  1.161310548952E+01  1.153859266131E+01  1.146274421784E+01  1.138554775861E+01
  1.130699136231E+01  1.122706362379E+01  1.114575369239E+01  1.106305131161E+01
  1.097894686015E+01  1.089343139427E+01  1.080649669155E+01  1.071813529598E+01
  1.062834056438E+01  1.053710671413E+01  1.044442887225E+01  1.035030312573E+01
  1.025472657305E+01  1.015769737701E+01  1.005921481857E+01  9.959279351976E+00
  9.857892660712E+00  9.755057714599E+00  9.650778827673E+00  9.545061716898E+00
  9.437913561567E+00  9.329343063287E+00  9.219360506428E+00  9.107977818899E+00
  8.995208633104E+00  8.881068346925E+00  8.765574184554E+00  8.648745256980E+00
  8.530602621953E+00  8.411169343182E+00  8.290470548555E+00  8.168533487128E+00
  8.045387584621E+00  7.921064497138E+00  7.795598162830E+00  7.669024851171E+00
  7.541383209537E+00  7.412714306726E+00  7.283061673083E+00  7.152471336822E+00
  7.020991856186E+00  6.888674347015E+00  6.755572505310E+00  6.621742624361E+00
  6.487243605993E+00  6.352136965462E+00  6.216486829553E+00  6.080359927395E+00
  5.943825573512E+00  5.806955642634E+00  5.669824535784E+00  5.532509137153E+00
  5.395088761294E+00  5.257645090168E+00  5.120262099573E+00  4.983025974538E+00
  4.846025013247E+00  4.709349519104E+00  4.573091680574E+00  4.437345438485E+00
  4.302206340482E+00  4.167771382411E+00  4.034138836443E+00  3.901408065807E+00
  3.769679326073E+00  3.639053553000E+00  3.509632137037E+00  3.381516684663E+00
  3.254808766821E+00  3.129609654848E+00  3.006020044345E+00  2.884139767615E+00
  2.764067495357E+00  2.645900428470E+00  2.529733980927E+00  2.415661454832E+00
  2.303773708893E+00  2.194158821701E+00  2.086901751345E+00  1.982083993018E+00
  1.879783236439E+00  1.780073025030E+00  1.683022418936E+00  1.588695664093E+00
  1.497151869669E+00  1.408444696326E+00  1.322622057816E+00  1.239725838530E+00
  1.159791629664E+00  1.082848486710E+00  1.008918710996E+00  9.380176579904E-01
  8.701535750375E-01  8.053274711386E-01  7.435330212721E-01  6.847565076170E-01
  6.289767998654E-01  5.761653765919E-01  5.262863893972E-01  4.792967712446E-01
  4.351463900730E-01  3.937782483967E-01  3.551287291863E-01  3.191278878793E-01
  2.856997898835E-01  2.547628924302E-01  2.262304690952E-01  2.000110747584E-01
  1.760090482060E-01  1.541250490165E-01  1.342566248092E-01  1.162988043909E-01
  1.001447118178E-01  8.568619590624E-02  7.281446929470E-02  6.142075078322E-02
  5.139690437728E-02  4.263606824240E-02  3.503326665169E-02  2.848599798742E-02
  2.289479194877E-02  1.816372932863E-02  1.420091805726E-02  1.091891967209E-02
  8.235120961669E-03  6.072046242981E-03  4.357606560298E-03  3.025283028829E-03
  2.014242574980E-03  1.269385429293E-03  7.413248876255E-04  3.863010465740E-04
  1.660314139341E-04  4.750246470084E-05  2.707327054290E-06  8.335809239533E-06
  4.542388577450E-05  9.897051977405E-05  1.575302795330E-04  2.127905876594E-04
  2.591426006192E-04  2.932546421661E-04  3.136567994441E-04  3.203447371494E-04
  3.144100031456E-04  2.977031073441E-04  2.725344823422E-04  2.414171155020E-04
  2.068532216327E-04  1.711658531799E-04  1.363748752173E-04  1.041153222361E-04
  7.559485912943E-05  5.158594329914E-05  3.244737607142E-05  1.816927860662E-05
  8.435158065697E-06  2.694658490243E-06  2.408173264402E-07  2.861567709310E-07
  2.032697560049E-06  4.731945403191E-06  7.732008546804E-06  1.051019124892E-05
  1.269059924230E-05  1.404741588669E-05  1.449549230586E-05  1.407068138263E-05
  1.290288807803E-05  1.118507907765E-05  9.141485758657E-06  6.997960160898E-06
  4.956939399832E-06  3.178793775737E-06  1.770546041837E-06  7.821307126922E-07
  2.095912698327E-07  3.962074803324E-09  8.410999729369E-08  3.515581130650E-07
  7.052964323018E-07  1.054792772393E-06  1.329815856058E-06  1.486216476171E-06
  1.507410249571E-06  1.401889874878E-06  1.197592022829E-06  9.342930391187E-07
  6.553686772957E-07  4.002129937149E-07  1.983859867667E-07  6.619087812302E-08
  5.932947635683E-09  0.000000000000E+00  0.000000000000E+00  0.000000000000E+00
  0.000000000000E+00  0.000000000000E+00  0.000000000000E+00  0.000000000000E+00
  0.000000000000E+00  0.000000000000E+00  0.000000000000E+00  0.000000000000E+00
  0.000000000000E+00  0.000000000000E+00
</data>
</radfunc>
</pseudocore-charge>
<semilocal-potentials set="scalar_relativistic">
<slps n="5" l="s" rc="2.00680014348" eref="-0.725508893777">
<radfunc>
<data npts="290">
  3.326851964088E+01  3.325373826842E+01  3.320960683716E+01  3.313616378106E+01
  3.302881153666E+01  3.289254415565E+01  3.272001686450E+01  3.252401555567E+01
  3.230559417068E+01  3.205346515528E+01  3.177255569179E+01  3.147110213197E+01
  3.111205714305E+01  3.074310209235E+01  3.038053118108E+01  2.997015311722E+01
  2.950693904311E+01  2.907683022492E+01  2.860340729582E+01  2.808368664632E+01
  2.751479925606E+01  2.702248767122E+01  2.649576540526E+01  2.593356166258E+01
  2.533500554066E+01  2.469946754410E+01  2.402660215666E+01  2.349743206895E+01
  2.294737270045E+01  2.237667501807E+01  2.178572349306E+01  2.117504322683E+01
  2.054530573099E+01  1.989733310967E+01  1.923210040730E+01  1.855073591067E+01
  1.785451922994E+01  1.714487702944E+01  1.666509192963E+01  1.618053083508E+01
  1.569171539899E+01  1.519919010488E+01  1.470352040364E+01  1.420529066887E+01
  1.370510198544E+01  1.320356978813E+01  1.270132136963E+01  1.219899327909E+01
  1.169722863347E+01  1.119667436568E+01  1.069797843365E+01  1.020178701508E+01
  9.708741712267E+00  9.219476790850E+00  8.734616475195E+00  8.254772321672E+00
  7.780540689214E+00  7.312500324301E+00  6.851210075041E+00  6.397206746245E+00
  5.951003104484E+00  5.513086039085E+00  5.083914881963E+00  4.663919886107E+00
  4.253500859627E+00  3.853025949436E+00  3.462830566119E+00  3.271683326545E+00
  3.083216439228E+00  2.897462222073E+00  2.714450790337E+00  2.534210036214E+00
  2.356765609688E+00  2.182140900514E+00  2.010357021208E+00  1.841432790937E+00
  1.675384720164E+00  1.512226995958E+00  1.351971467843E+00  1.194627634087E+00
  1.040202628346E+00  8.887012065690E-01  7.401257340934E-01  5.944761728830E-01
  4.517500688603E-01  3.119425393064E-01  1.750462603344E-01  4.105145444248E-02
 -9.005412179720E-02 -2.182851898614E-01 -3.436589611011E-01 -4.661951481472E-01
 -5.859159757360E-01 -7.028461907587E-01 -8.170130712997E-01 -9.284464343904E-01
 -1.037178642166E+00 -1.143244606061E+00 -1.246681788639E+00 -1.347530202606E+00
 -1.445832406498E+00 -1.541633496489E+00 -1.634981093724E+00 -1.725925326503E+00
 -1.814518806618E+00 -1.900816599077E+00 -1.984876184411E+00 -2.066757412691E+00
 -2.146522448369E+00 -2.224235704986E+00 -2.299963768775E+00 -2.373775310144E+00
 -2.445740982012E+00 -2.515933303947E+00 -2.584426531073E+00 -2.651296506679E+00
 -2.716620497545E+00 -2.780477010983E+00 -2.842945592667E+00 -2.904106604401E+00
 -2.964040981054E+00 -3.022829966004E+00 -3.080554824562E+00 -3.137296535012E+00
 -3.193135457063E+00 -3.248150977733E+00 -3.302421134840E+00 -3.356022218764E+00
 -3.409028352808E+00 -3.461511053833E+00 -3.513538773811E+00 -3.565176424519E+00
 -3.616484887052E+00 -3.667520508639E+00 -3.718334589433E+00 -3.768972862328E+00
 -3.819474969194E+00 -3.869873937303E+00 -3.920195659980E+00 -3.970458385877E+00
 -4.020672221523E+00 -4.070838652071E+00 -4.120950085379E+00 -4.170989424772E+00
 -4.220929675976E+00 -4.270733593836E+00 -4.320353374540E+00 -4.369730399092E+00
 -4.418795033838E+00 -4.467466493839E+00 -4.515652774863E+00 -4.563250659761E+00
 -4.610145804966E+00 -4.656212912827E+00 -4.701315995503E+00 -4.745308736169E+00