<?xml version="1.0" encoding="UTF-8" ?>
<psml version="1.1" energy_unit="hartree" length_unit="bohr"
 uuid="2e63c660-be63-11e7-4f57-6a7697ffcf75"
 xmlns="http://esl.cecam.org/PSML/ns/1.1">
<provenance creator="ONCVPSP-3.3.0+psml-3.3.0-73 (scalar-relativistic)"
 date="2017-10-31">
<annotation action="semilocal-pseudopotential-generation"
 action-cont="projectors-generation" />
<input-file name="oncvpsp-input">
<![CDATA[# atsym z nc nv iexc psfile
Ni 28 3 4 4 upf
# n l f
1 0 2.0
2 0 2.0
2 1 6.0
3 0 2.0
3 1 6.0
3 2 8.0
4 0 2.0
# lmax
2
# l rc ep ncon nbas qcut
0 1.2 0.0 4 8 10.2
1 1.25 0.0 4 8 10.0
2 1.55 0.0 4 8 10.0
# lloc lpopt rc5 dvloc0
4 5 1.2 0.0
# l nproj debl
0 2 1.0
1 2 2.8
2 2 1.0
# icmod fcfact
3 3 1.7
# epsh1 epsh2 depsh
-12.0 12.0 0.02
# rlmax drl
6.0 0.01
 0
]]>
</input-file>
</provenance>
<pseudo-atom-spec atomic-label="Ni" atomic-number="28" z-pseudo="18"
 flavor="Hamann&apos;s oncvpsp" relativity="scalar" spin-dft="no"
 core-corrections="yes">
<annotation pseudo-energy="-165.050434909" />
<exchange-correlation>
<annotation oncvpsp-xc-code="4" oncvpsp-xc-type="GGA -- Perdew-Burke-Ernzerhof" />
<libxc-info number-of-functionals="2">
<functional name="Perdew, Burke &amp; Ernzerhof (GGA)" type="exchange" id="101" />
<functional name="Perdew, Burke &amp; Ernzerhof (GGA)" type="correlation"
 id="130" />
</libxc-info>
</exchange-correlation>
<valence-configuration total-valence-charge="18">
<shell n="3" l="s" occupation="2" />
<shell n="3" l="p" occupation="6" />
<shell n="3" l="d" occupation="8" />
<shell n="4" l="s" occupation="2" />
</valence-configuration>
</pseudo-atom-spec>
<grid npts="457">
<annotation type="sampled from oncvpsp log grid"
 recipe="r(i:1..N) = r1*exp(a*(i-1)) + r=0; resampled"
 recipe-cont="r1: scale; a: step" scale="0.178571428571E-04"
 step="0.119285708653E-01" delta="0.500000000000E-02" rmax="44.1127774257" />
<grid-data>
  0.000000000000E+00  5.037260227087E-03  1.006153199362E-02  1.509390240677E-02
  2.009712055657E-02  2.520946187690E-02  3.051067215696E-02  3.562857378909E-02
  4.111161976253E-02  4.632012396247E-02  5.156966681787E-02  5.673334959985E-02
  6.241407314470E-02  6.784941587428E-02  7.288349463671E-02  7.829107623126E-02
  8.409987265294E-02  8.926843081494E-02  9.475463504026E-02  1.005780070250E-01
  1.067592682175E-01  1.119766932335E-01  1.174490986765E-01  1.231889456778E-01
  1.292093043559E-01  1.355238835779E-01  1.421470621764E-01  1.473260095757E-01
  1.526936453359E-01  1.582568440774E-01  1.640227308887E-01  1.699986904517E-01
  1.761923764999E-01  1.826117216210E-01  1.892649474162E-01  1.961605750303E-01
  2.033074360652E-01  2.107146838912E-01  2.158021792191E-01  2.210125070342E-01
  2.263486330040E-01  2.318135943992E-01  2.374105018224E-01  2.431425409784E-01
  2.490129744878E-01  2.550251437438E-01  2.611824708144E-01  2.674884603897E-01
  2.739467017774E-01  2.805608709451E-01  2.873347326132E-01  2.942721423974E-01
  3.013770490034E-01  3.086534964746E-01  3.161056264935E-01  3.237376807395E-01
  3.315540033033E-01  3.395590431590E-01  3.477573566971E-01  3.561536103172E-01
  3.647525830847E-01  3.735591694507E-01  3.825783820379E-01  3.918153544938E-01
  4.012753444127E-01  4.109637363282E-01  4.208860447781E-01  4.259366773154E-01
  4.310479174432E-01  4.362204924526E-01  4.414551383620E-01  4.467526000223E-01
  4.521136312226E-01  4.575389947973E-01  4.630294627348E-01  4.685858162877E-01
  4.742088460831E-01  4.798993522361E-01  4.856581444629E-01  4.914860421965E-01
  4.973838747028E-01  5.033524811993E-01  5.093927109737E-01  5.155054235054E-01
  5.216914885874E-01  5.279517864505E-01  5.342872078879E-01  5.406986543825E-01
  5.471870382351E-01  5.537532826939E-01  5.603983220863E-01  5.671231019513E-01
  5.739285791747E-01  5.808157221248E-01  5.877855107903E-01  5.948389369198E-01
  6.019770041628E-01  6.092007282128E-01  6.165111369513E-01  6.239092705948E-01
  6.313961818419E-01  6.389729360240E-01  6.466406112563E-01  6.544002985914E-01
  6.622531021745E-01  6.702001394006E-01  6.782425410734E-01  6.863814515662E-01
  6.946180289850E-01  7.029534453329E-01  7.113888866768E-01  7.199255533170E-01
  7.285646599568E-01  7.373074358763E-01  7.461551251068E-01  7.551089866081E-01
  7.641702944473E-01  7.733403379807E-01  7.826204220365E-01  7.920118671009E-01
  8.015160095061E-01  8.111342016202E-01  8.208678120397E-01  8.307182257841E-01
  8.406868444935E-01  8.507750866275E-01  8.609843876670E-01  8.713162003190E-01
  8.817719947228E-01  8.923532586595E-01  9.030614977634E-01  9.138982357366E-01
  9.248650145654E-01  9.359633947402E-01  9.471949554771E-01  9.585612949428E-01
  9.700640304821E-01  9.817047988479E-01  9.934852564341E-01  1.005407079511E+00
  1.017471964465E+00  1.029681628039E+00  1.042037807575E+00  1.054542261266E+00
  1.067196768402E+00  1.080003129622E+00  1.092963167178E+00  1.106078725184E+00
  1.119351669886E+00  1.132783889925E+00  1.146377296604E+00  1.160133824163E+00
  1.174055430053E+00  1.188144095214E+00  1.202401824356E+00  1.216830646249E+00
  1.231432614004E+00  1.246209805372E+00  1.261164323036E+00  1.276298294913E+00
  1.291613874451E+00  1.307113240945E+00  1.322798599836E+00  1.338672183034E+00
  1.354736249231E+00  1.370993084221E+00  1.387445001232E+00  1.404094341247E+00
  1.420943473342E+00  1.437994795022E+00  1.455250732562E+00  1.472713741353E+00
  1.490386306249E+00  1.508270941924E+00  1.526370193227E+00  1.544686635546E+00
  1.563222875173E+00  1.581981549675E+00  1.600965328271E+00  1.620176912210E+00
  1.639619035157E+00  1.659294463578E+00  1.679205997141E+00  1.699356469107E+00
  1.719748746736E+00  1.740385731697E+00  1.761270360478E+00  1.782405604803E+00
  1.803794472061E+00  1.825440005726E+00  1.847345285794E+00  1.869513429224E+00
  1.891947590375E+00  1.914650961459E+00  1.937626772997E+00  1.960878294273E+00
  1.984408833804E+00  2.008221739809E+00  2.032320400687E+00  2.056708245495E+00
  2.081388744441E+00  2.106365409375E+00  2.131641794287E+00  2.157221495819E+00
  2.183108153768E+00  2.209305451614E+00  2.235817117033E+00  2.262646922437E+00
  2.289798685507E+00  2.317276269733E+00  2.345083584969E+00  2.373224587989E+00
  2.401703283045E+00  2.430523722442E+00  2.459690007111E+00  2.489206287196E+00
  2.519076762643E+00  2.549305683794E+00  2.579897352000E+00  2.610856120224E+00
  2.642186393666E+00  2.673892630390E+00  2.705979341955E+00  2.738451094059E+00
  2.771312507187E+00  2.804568257274E+00  2.838223076361E+00  2.872281753277E+00
  2.906749134316E+00  2.941630123928E+00  2.976929685415E+00  3.012652841640E+00
  3.048804675740E+00  3.085390331849E+00  3.122415015831E+00  3.159883996021E+00
  3.197802603973E+00  3.236176235221E+00  3.275010350044E+00  3.314310474244E+00
  3.354082199935E+00  3.394331186334E+00  3.435063160570E+00  3.476283918497E+00
  3.517999325519E+00  3.560215317425E+00  3.602937901235E+00  3.646173156049E+00
  3.689927233922E+00  3.734206360729E+00  3.779016837058E+00  3.824365039102E+00
  3.870257419572E+00  3.916700508607E+00  3.963700914710E+00  4.011265325686E+00
  4.059400509595E+00  4.108113315710E+00  4.157410675498E+00  4.207299603604E+00
  4.257787198847E+00  4.308880645234E+00  4.360587212976E+00  4.412914259532E+00
  4.465869230647E+00  4.519459661414E+00  4.573693177351E+00  4.628577495479E+00
  4.684120425425E+00  4.740329870530E+00  4.797213828977E+00  4.854780394924E+00
  4.913037759664E+00  4.971994212779E+00  5.031658143333E+00  5.092038041053E+00
  5.153142497545E+00  5.214980207516E+00  5.277559970006E+00  5.340890689646E+00
  5.404981377922E+00  5.469841154457E+00  5.535479248311E+00  5.601904999290E+00
  5.669127859282E+00  5.737157393593E+00  5.806003282316E+00  5.875675321704E+00
  5.946183425565E+00  6.017537626671E+00  6.089748078191E+00  6.162825055130E+00
  6.236778955791E+00  6.311620303261E+00  6.387359746900E+00  6.464008063863E+00
  6.541576160629E+00  6.620075074557E+00  6.699515975451E+00  6.779910167157E+00
  6.861269089162E+00  6.943604318232E+00  7.026927570051E+00  7.111250700892E+00
  7.196585709303E+00  7.282944737814E+00  7.370340074668E+00  7.458784155564E+00
  7.548289565431E+00  7.638869040216E+00  7.730535468698E+00  7.823301894323E+00
  7.917181517055E+00  8.012187695259E+00  8.108333947603E+00  8.205633954974E+00
  8.304101562433E+00  8.403750781183E+00  8.504595790557E+00  8.606650940043E+00
  8.709930751324E+00  8.814449920340E+00  8.920223319384E+00  9.027265999217E+00
  9.135593191207E+00  9.245220309502E+00  9.356162953216E+00  9.468436908654E+00
  9.582058151558E+00  9.697042849377E+00  9.813407363569E+00  9.931168251932E+00
  1.005034227096E+01  1.017094637821E+01  1.029299773475E+01  1.041651370756E+01
  1.054151187205E+01  1.066801001452E+01  1.079602613469E+01  1.092557844831E+01
  1.105668538969E+01  1.118936561436E+01  1.132363800174E+01  1.145952165776E+01
  1.159703591765E+01  1.173620034866E+01  1.187703475285E+01  1.201955916988E+01
  1.216379387992E+01  1.230975940648E+01  1.245747651936E+01  1.260696623759E+01
  1.275824983244E+01  1.291134883043E+01  1.306628501639E+01  1.322308043659E+01
  1.338175740183E+01  1.354233849065E+01  1.370484655254E+01  1.386930471117E+01
  1.403573636770E+01  1.420416520412E+01  1.437461518657E+01  1.454711056880E+01
  1.472167589563E+01  1.489833600638E+01  1.507711603845E+01  1.525804143092E+01
  1.544113792809E+01  1.562643158322E+01  1.581394876222E+01  1.600371614737E+01
  1.619576074114E+01  1.639010987003E+01  1.658679118847E+01  1.678583268273E+01
  1.698726267493E+01  1.719110982702E+01  1.739740314495E+01  1.760617198269E+01
  1.781744604648E+01  1.803125539904E+01  1.824763046383E+01  1.846660202939E+01
  1.868820125375E+01  1.891245966879E+01  1.913940918482E+01  1.936908209503E+01
  1.960151108017E+01  1.983672921314E+01  2.007476996369E+01  2.031566720326E+01
  2.055945520970E+01  2.080616867221E+01  2.105584269628E+01  2.130851280864E+01
  2.156421496234E+01  2.182298554189E+01  2.208486136839E+01  2.234987970481E+01
  2.261807826127E+01  2.288949520040E+01  2.316416914281E+01  2.344213917252E+01
  2.372344484259E+01  2.400812618070E+01  2.429622369487E+01  2.458777837921E+01
  2.488283171976E+01  2.518142570040E+01  2.548360280880E+01  2.578940604251E+01
  2.609887891502E+01  2.641206546200E+01  2.672901024754E+01  2.704975837051E+01
  2.737435547096E+01  2.770284773661E+01  2.803528190945E+01  2.837170529236E+01
  2.871216575587E+01  2.905671174494E+01  2.940539228588E+01  2.975825699331E+01
  3.011535607723E+01  3.047674035016E+01  3.084246123436E+01  3.121257076917E+01
  3.158712161840E+01  3.196616707782E+01  3.234976108276E+01  3.273795821575E+01
  3.313081371434E+01  3.352838347891E+01  3.393072408066E+01  3.433789276963E+01
  3.474994748286E+01  3.516694685266E+01  3.558895021489E+01  3.601601761747E+01
  3.644820982888E+01  3.688558834682E+01  3.732821540699E+01  3.777615399187E+01
  3.822946783977E+01  3.868822145385E+01  3.915248011129E+01  3.962230987263E+01
  4.009777759110E+01  4.057895092220E+01  4.106589833326E+01  4.155868911326E+01
  4.205739338262E+01  4.256208210321E+01  4.307282708845E+01  4.358970101351E+01
  4.411277742567E+01
</grid-data>
</grid>
<valence-charge total-charge="18" is-unscreening-charge="yes"
 rescaled-to-z-pseudo="no">
<radfunc>
<data npts="457">
  1.335239034238E+01  1.336214371757E+01  1.339129508849E+01  1.343991391444E+01
  1.350747818110E+01  1.359626034429E+01  1.370931699267E+01  1.383864554178E+01
  1.399906950164E+01  1.417226802051E+01  1.436718191707E+01  1.457866533388E+01
  1.483373206871E+01  1.509950883548E+01  1.536438324939E+01  1.566869694370E+01
  1.601808173877E+01  1.634822601381E+01  1.671815973651E+01  1.713237722444E+01
  1.759579602320E+01  1.800554003232E+01  1.845313894737E+01  1.894172105382E+01
  1.947459068197E+01  2.005521782171E+01  2.068722115104E+01  2.119718668482E+01
  2.173976765684E+01  2.231659443029E+01  2.292930093472E+01  2.357950806886E+01
  2.426880362792E+01  2.499871825257E+01  2.577069684938E+01  2.658606488729E+01
  2.744598893486E+01  2.835143077106E+01  2.898070635911E+01  2.963066416834E+01
  3.030136517906E+01  3.099278898110E+01  3.170482326708E+01  3.243725248876E+01
  3.318974565636E+01  3.396184326987E+01  3.475294338236E+01  3.556228680923E+01
  3.638894151415E+01  3.723178622262E+01  3.808949333836E+01  3.896051126591E+01
  3.984304627556E+01  4.073504408514E+01  4.163417137560E+01  4.253779750675E+01
  4.344297675320E+01  4.434643144069E+01  4.524453642803E+01  4.613330544973E+01
  4.700837990815E+01  4.786502078044E+01  4.869810438267E+01  4.950212280914E+01
  5.027118993651E+01  5.099905394461E+01  5.167911735684E+01  5.199907445724E+01
  5.230446563441E+01  5.259438329273E+01  5.286790536686E+01  5.312409711116E+01
  5.336201307702E+01  5.358069928474E+01  5.377919559558E+01  5.395653828900E+01
  5.411176284924E+01  5.424390696418E+01  5.435201373845E+01  5.443513512119E+01
  5.449233554754E+01  5.452269579110E+01  5.452531702289E+01  5.449932507020E+01
  5.444387486666E+01  5.435815508229E+01  5.424139292002E+01  5.409285906222E+01
  5.391187274807E+01  5.369780695966E+01  5.345009369150E+01  5.316822927494E+01
  5.285177972587E+01  5.250038608063E+01  5.211376968179E+01  5.169173737231E+01
  5.123418655329E+01  5.074111005762E+01  5.021260078892E+01  4.964885607276E+01
  4.905018166477E+01  4.841699535862E+01  4.774983013535E+01  4.704933679508E+01
  4.631628601157E+01  4.555156975127E+01  4.475620199946E+01  4.393131873872E+01
  4.307817712799E+01  4.219815383503E+01  4.129274248013E+01  4.036355015560E+01
  3.941229299310E+01  3.844079075946E+01  3.745096047151E+01  3.644480903144E+01
  3.542442489577E+01  3.439196880409E+01  3.334966360687E+01  3.229978324604E+01
  3.124464095625E+01  3.018657676935E+01  2.912794441923E+01  2.807109775798E+01
  2.701837680781E+01  2.597209358534E+01  2.493451784554E+01  2.390786290194E+01
  2.289427168609E+01  2.189580321428E+01  2.091441963069E+01  1.995197399510E+01
  1.901019897858E+01  1.809069662285E+01  1.719492930742E+01  1.632421205416E+01
  1.547970628096E+01  1.466241509521E+01  1.387318019412E+01  1.311268041313E+01
  1.238143193614E+01  1.167979015240E+01  1.100795311601E+01  1.036596653519E+01
  9.753730190631E+00  9.171005656800E+00  8.617425176554E+00  8.092501519995E+00
  7.595638642549E+00  7.126142946161E+00  6.683234941375E+00  6.266061107182E+00
  5.873705750180E+00  5.505202674592E+00  5.159546489891E+00  4.835703687226E+00
  4.532624126572E+00  4.249252181503E+00  3.984534472439E+00  3.737426550044E+00
  3.506897649776E+00  3.291934672243E+00  3.091548057065E+00  2.904776950309E+00
  2.730693830952E+00  2.568408548240E+00  2.417071790166E+00  2.275878003209E+00
  2.144067780711E+00  2.020929732507E+00  1.905801842271E+00  1.798072312434E+00
  1.697179890302E+00  1.602613664178E+00  1.513912315736E+00  1.430662815356E+00
  1.352498551261E+00  1.279095130910E+00  1.210158834747E+00  1.145411329525E+00
  1.084589279357E+00  1.027443743271E+00  9.737396807636E-01  9.232554453227E-01
  8.757822696140E-01  8.311237457178E-01  7.890953035094E-01  7.495236899801E-01
  7.122464520104E-01  6.771114248297E-01  6.439762281301E-01  6.127077715492E-01
  5.831817709979E-01  5.552822770852E-01  5.289012166873E-01  5.039379485142E-01
  4.802988333594E-01  4.578968195565E-01  4.366510440290E-01  4.164864491935E-01
  3.973334158649E-01  3.791274122128E-01  3.618086587325E-01  3.453218091160E-01
  3.296156468422E-01  3.146427972452E-01  3.003594547686E-01  2.867251250686E-01
  2.737023815896E-01  2.612566362036E-01  2.493559234746E-01  2.379706980902E-01
  2.270736449778E-01  2.166395016165E-01  2.066448920375E-01  1.970681720057E-01
  1.878892848705E-01  1.790896275705E-01  1.706519262876E-01  1.625601212445E-01
  1.547992601522E-01  1.473553998236E-01  1.402155154815E-01  1.333674173021E-01
  1.267996737513E-01  1.205015412864E-01  1.144629000138E-01  1.086741949074E-01
  1.031263822159E-01  9.781088069884E-02  9.271952735412E-02  8.784453731623E-02
  8.317846762159E-02  7.871418455630E-02  7.444483431796E-02  7.036381674023E-02
  6.646476184468E-02  6.274150899993E-02  5.918808848222E-02  5.579870524574E-02
  5.256772472313E-02  4.948966048863E-02  4.655916362701E-02  4.377101366095E-02
  4.112011089669E-02  3.860147006789E-02  3.621021512959E-02  3.394157511218E-02
  3.179088090833E-02  2.975356288931E-02  2.782514924849E-02  2.600126497441E-02
  2.427763136005E-02  2.265006595922E-02  2.111448290579E-02  1.966689351580E-02
  1.830340709767E-02  1.702023190090E-02  1.581367613900E-02  1.468014902833E-02
  1.361616179041E-02  1.261832857113E-02  1.168336723704E-02  1.080810001430E-02
  9.989453942685E-03  9.224461122445E-03  8.510258737841E-03  7.844088846282E-03
  7.223297927203E-03  6.645336189279E-03  6.107756638763E-03  5.608213915375E-03
  5.144462905351E-03  4.714357143940E-03  4.315847021842E-03  3.946977811806E-03
  3.605887532900E-03  3.290804670824E-03  3.000045773124E-03  2.732012938261E-03
  2.485191217330E-03  2.258145946705E-03  2.049520029182E-03  1.858031180282E-03
  1.682469155250E-03  1.521692971104E-03  1.374628136786E-03  1.240263903085E-03
  1.117650542664E-03  1.005896669151E-03  9.041666029454E-04  8.116777901217E-04
  7.276982796869E-04  6.515442633415E-04  5.825776809734E-04  5.202038942642E-04
  4.638694300751E-04  4.130597946806E-04  3.672973594264E-04  3.261393179985E-04
  2.891757151909E-04  2.560275468357E-04  2.263449303962E-04  1.998053456164E-04
  1.761119445426E-04  1.549919301861E-04  1.361950030608E-04  1.194918748005E-04
  1.046728480337E-04  9.154646165604E-05  7.993820059928E-05  6.968926913723E-05
  6.065542670437E-05  5.270588512311E-05  4.572226604816E-05  3.959761734163E-05
  3.423548699142E-05  2.954905308416E-05  2.546030824156E-05  2.189929683174E-05
  1.880340317469E-05  1.611668887732E-05  1.378927736037E-05  1.177678357687E-05
  1.003978687317E-05  8.543344907394E-06  7.256546518092E-06  6.152101427773E-06
  5.205964670652E-06  4.396993652123E-06  3.706635777115E-06  3.118644627678E-06
  2.618822699446E-06  2.194788900175E-06  1.835768554159E-06  1.532405085357E-06
  1.276590556944E-06  1.061313965592E-06  8.805255851953E-07  7.290165073142E-07
  6.023117016566E-07  4.965750802476E-07  4.085255277044E-07  3.353628532313E-07
  2.747026529037E-07  2.245191534358E-07  1.830951852191E-07  1.489785054645E-07
  1.209437615541E-07  9.795945002835E-08  7.915928793614E-08  6.381747049475E-08
  5.132734218617E-08  4.118305759990E-08  3.296385362889E-08  2.632059615936E-08
  2.096430232388E-08  1.665637388105E-08  1.320030853339E-08  1.043468419205E-08
  8.227236545017E-09  6.469872986922E-09  5.074486225332E-09  3.969448888040E-09
  3.096686410510E-09  2.409239566570E-09  1.869240394404E-09  1.446236129921E-09
  1.115805246852E-09  8.584179582979E-10  6.581187565246E-10  5.033973703206E-10
  3.839148170267E-10  2.919183133120E-10  2.212969412753E-10  1.672483873099E-10
  1.260101602350E-10  9.464348220566E-11  7.086007168880E-11  5.288374255171E-11
  3.934017293763E-11  2.916939234612E-11  2.155653029080E-11  1.587719557833E-11
  1.165453802343E-11  8.525607014477E-12  6.215083267300E-12  4.514838004556E-12
  3.268081838823E-12  2.357115817912E-12  1.693899532640E-12  1.212814392759E-12
  8.651312594495E-13  6.147965085571E-13  4.352342044031E-13  3.069284514586E-13
  2.156025026063E-13  1.508525762052E-13  1.051268036598E-13  7.296510947897E-14
  5.043558496993E-14  3.471823722730E-14  2.379882532834E-14  1.624459291128E-14
  1.104067267881E-14  7.471250395184E-15  5.033609181849E-15  3.376223980014E-15
  2.254371025385E-15  1.498436943957E-15  9.913950475672E-16  6.528692048396E-16
  4.279100293168E-16  2.791264358682E-16  1.811952366226E-16  1.170481779528E-16
  7.523658524595E-17  4.811873185761E-17  3.061919678658E-17  1.938390814367E-17
  1.220759458953E-17  7.647740114523E-18  4.765659659736E-18  2.953738396698E-18
  1.820757146269E-18  1.116180822184E-18  6.804415621782E-19  4.124693756915E-19
  2.486037571312E-19  1.489734620594E-19  8.874934415600E-20  5.255884466067E-20
  3.093997003858E-20  1.810322624597E-20  1.052742559993E-20  6.083962445117E-21
  0.000000000000E+00  0.000000000000E+00  0.000000000000E+00  0.000000000000E+00
  0.000000000000E+00  0.000000000000E+00  0.000000000000E+00  0.000000000000E+00
  0.000000000000E+00  0.000000000000E+00  0.000000000000E+00  0.000000000000E+00
  0.000000000000E+00  0.000000000000E+00  0.000000000000E+00  0.000000000000E+00
  0.000000000000E+00  0.000000000000E+00  0.000000000000E+00  0.000000000000E+00
  0.000000000000E+00
</data>
</radfunc>
</valence-charge>
<pseudocore-charge matching-radius="0.382578382038"
 number-of-continuous-derivatives="4">
<annotation model-charge-form="Teter function with specified parameters" />
<radfunc>
<data npts="290">
  1.562983525950E+02  1.562687329040E+02  1.561802104748E+02  1.560325939718E+02
  1.558275003802E+02  1.555580786693E+02  1.552151230001E+02  1.548229850793E+02
  1.543368257224E+02  1.538122788168E+02  1.532223663585E+02  1.525827831516E+02
  1.518120477218E+02  1.510097053032E+02  1.502108463646E+02  1.492939645114E+02
  1.482424911979E+02  1.472500903908E+02  1.461394127133E+02  1.448974183196E+02
  1.435099128292E+02  1.422848500142E+02  1.409484310964E+02  1.394917709544E+02
  1.379055347772E+02  1.361799740801E+02  1.343049798151E+02  1.327944227176E+02
  1.311895045383E+02  1.294857330831E+02  1.276786197299E+02  1.257637206315E+02
  1.237366849430E+02  1.215933107321E+02  1.193296092151E+02  1.169418779156E+02
  1.144267832744E+02  1.117814531212E+02  1.099443802299E+02  1.080478633660E+02
  1.060915302045E+02  1.040751746399E+02  1.019987743676E+02  9.986250919276E+01
  9.766677998060E+01  9.541222813578E+01  9.309975547256E+01  9.073054430788E+01
  8.830607757686E+01  8.582815873502E+01  8.329893117396E+01  8.072089683691E+01
  7.809693367925E+01  7.543031157589E+01  7.272470623409E+01  6.998421062792E+01
  6.721334342962E+01  6.441705387610E+01  6.160072247662E+01  5.877015694343E+01
  5.593158271219E+01  5.309162741672E+01  5.025729869594E+01  4.743595474254E+01
  4.463526705685E+01  4.186317494823E+01  3.912783143413E+01  3.777653135293E+01
  3.643754032587E+01  3.511190811621E+01  3.380068446358E+01  3.250491637175E+01
  3.122564527119E+01  2.996390406251E+01  2.872071404796E+01  2.749708175948E+01
  2.629399569318E+01  2.511242296135E+01  2.395330587486E+01  2.281755846982E+01
  2.170606299438E+01  2.061966637231E+01  1.955917666236E+01  1.852535953290E+01
  1.751893477352E+01  1.654057286605E+01  1.559089163896E+01  1.467045303025E+01
  1.377975998465E+01  1.291925351220E+01  1.208930993559E+01  1.129023835420E+01
  1.052227835301E+01  9.785597984465E+00  9.080292050919E+00  8.406380714767E+00
  7.763808462216E+00  7.152443445310E+00  6.572077225059E+00  6.022424936339E+00
  5.503125892629E+00  5.013744645701E+00  4.553772511911E+00  4.122629572963E+00
  3.719667154755E+00  3.344170783367E+00  2.995363612274E+00  2.672410309650E+00
  2.374421389150E+00  2.100457961828E+00  1.849536881105E+00  1.620636246798E+00
  1.412701228451E+00  1.224650162557E+00  1.055380872836E+00  9.037771577226E-01
  7.687153846551E-01  6.490711268152E-01  5.437257747374E-01  4.515730528404E-01
  3.715253695041E-01  3.025199289555E-01  2.435245340140E-01  1.935430107625E-01
  1.516201895007E-01  1.168463809389E-01  8.836129250068E-02  6.535733679779E-02
  4.708229274674E-02  3.284128932979E-02  2.199809251240E-02  1.397568715123E-02
  8.256157646544E-03  4.379883368234E-03  1.944077240563E-03  6.007080092030E-04
  5.385831710242E-05  5.658145774547E-05  4.073292287800E-04  9.460313613234E-04
  1.549913258965E-03  2.129142989921E-03  2.622400428634E-03  2.992460992406E-03
  3.221883489008E-03  3.308886187901E-03  3.263487443656E-03  3.103977219881E-03
  2.853773961485E-03  2.538707806216E-03  2.184756556103E-03  1.816245654711E-03
  1.454508194285E-03  1.116986291707E-03  8.167416083714E-04  5.623309042342E-04
  3.579928117128E-04  2.040849069787E-04  9.770594837393E-05  3.343701332264E-05
  4.137213195023E-06  1.734555826674E-06  1.796005191256E-05  4.498286667297E-05
  7.591561321363E-05  1.051710795880E-04  1.286640278853E-04  1.438634374105E-04
  1.497109598301E-04  1.464297768016E-04  1.352540038886E-04  1.181119526617E-04
  9.729683984288E-05  7.515603628940E-05  5.382501777442E-05  3.502534908727E-05
  1.993799295177E-05  9.154771935860E-06  2.702736717765E-06  1.292683662169E-07
  6.305995854179E-07  3.203521428010E-06  6.799547809047E-06  1.046267459728E-05
  1.343576610793E-05  1.522597586084E-05  1.562574342801E-05  1.469201025747E-05
  1.269159084243E-05  1.002446890166E-05  7.138717362892E-06  4.450592661646E-06
  2.281251836931E-06  8.178896173905E-07  1.025189266979E-07  0.000000000000E+00
  0.000000000000E+00  0.000000000000E+00  0.000000000000E+00  0.000000000000E+00
  0.000000000000E+00  0.000000000000E+00  0.000000000000E+00  0.000000000000E+00
  0.000000000000E+00  0.000000000000E+00  0.000000000000E+00  0.000000000000E+00
  0.000000000000E+00  0.000000000000E+00  0.000000000000E+00  0.000000000000E+00
  0.000000000000E+00  0.000000000000E+00  0.000000000000E+00  0.000000000000E+00
  0.000000000000E+00  0.000000000000E+00  0.000000000000E+00  0.000000000000E+00
  0.000000000000E+00  0.000000000000E+00  0.000000000000E+00  0.000000000000E+00
  0.000000000000E+00  0.000000000000E+00  0.000000000000E+00  0.000000000000E+00
  0.000000000000E+00  0.000000000000E+00  0.000000000000E+00  0.000000000000E+00
  0.000000000000E+00  0.000000000000E+00  0.000000000000E+00  0.000000000000E+00
  0.000000000000E+00  0.000000000000E+00  0.000000000000E+00  0.000000000000E+00
  0.000000000000E+00  0.000000000000E+00  0.000000000000E+00  0.000000000000E+00
  0.000000000000E+00  0.000000000000E+00  0.000000000000E+00  0.000000000000E+00
  0.000000000000E+00  0.000000000000E+00  0.000000000000E+00  0.000000000000E+00
  0.000000000000E+00  0.000000000000E+00  0.000000000000E+00  0.000000000000E+00
  0.000000000000E+00  0.000000000000E+00  0.000000000000E+00  0.000000000000E+00
  0.000000000000E+00  0.000000000000E+00  0.000000000000E+00  0.000000000000E+00
  0.000000000000E+00  0.000000000000E+00  0.000000000000E+00  0.000000000000E+00
  0.000000000000E+00  0.000000000000E+00  0.000000000000E+00  0.000000000000E+00
  0.000000000000E+00  0.000000000000E+00  0.000000000000E+00  0.000000000000E+00
  0.000000000000E+00  0.000000000000E+00  0.000000000000E+00  0.000000000000E+00
  0.000000000000E+00  0.000000000000E+00  0.000000000000E+00  0.000000000000E+00
  0.000000000000E+00  0.000000000000E+00  0.000000000000E+00  0.000000000000E+00
  0.000000000000E+00  0.000000000000E+00
</data>
</radfunc>
</pseudocore-charge>
<semilocal-potentials set="scalar_relativistic">
<slps n="3" l="s" rc="1.20240182436" eref="-4.08135523408">
<radfunc>
<data npts="290">
 -2.390092527289E+01 -2.390172708146E+01 -2.390412331236E+01 -2.390811897411E+01
 -2.391367000884E+01 -2.392096141035E+01 -2.393024165678E+01 -2.394085105572E+01
 -2.395400165590E+01 -2.396818736117E+01 -2.398413661590E+01 -2.400142365098E+01
 -2.402224818644E+01 -2.404391785455E+01 -2.406548412119E+01 -2.409022466089E+01
 -2.411858059325E+01 -2.414532675791E+01 -2.417524047911E+01 -2.420866458605E+01
 -2.424597005945E+01 -2.427887610411E+01 -2.431473742511E+01 -2.435378056331E+01
 -2.439624085658E+01 -2.444236064002E+01 -2.449238678290E+01 -2.453261927301E+01
 -2.457529254476E+01 -2.462050826744E+01 -2.466836448938E+01 -2.471895390502E+01
 -2.477236182696E+01 -2.482866382850E+01 -2.488792302026E+01 -2.495018692296E+01
 -2.501548389779E+01 -2.508381909547E+01 -2.513105391446E+01 -2.517961507141E+01
 -2.522948073781E+01 -2.528062106689E+01 -2.533299734825E+01 -2.538656110748E+01
 -2.544125315064E+01 -2.549700255356E+01 -2.555372559713E+01 -2.561132465021E+01
 -2.566968700291E+01 -2.572868365395E+01 -2.578816805712E+01 -2.584797483322E+01
 -2.590791845533E+01 -2.596779191709E+01 -2.602736539534E+01 -2.608638492055E+01
 -2.614457107061E+01 -2.620161770549E+01 -2.625719076276E+01 -2.631092713586E+01
 -2.636243365932E+01 -2.641128622678E+01 -2.645702906978E+01 -2.649917422615E+01
 -2.653720122845E+01 -2.657055704348E+01 -2.659865629427E+01 -2.661054305886E+01
 -2.662088179670E+01 -2.662959053476E+01 -2.663658544303E+01 -2.664178088343E+01
 -2.664508946549E+01 -2.664642210903E+01 -2.664568811423E+01 -2.664279523926E+01
 -2.663764978599E+01 -2.663015669387E+01 -2.662021964262E+01 -2.660774116388E+01
 -2.659262276230E+01 -2.657476504650E+01 -2.655406787026E+01 -2.653043048437E+01
 -2.650375169953E+01 -2.647393006075E+01 -2.644086403360E+01 -2.640445220252E+01
 -2.636459348165E+01 -2.632118733817E+01 -2.627413402837E+01 -2.622333484634E+01
 -2.616869238500E+01 -2.611011080929E+01 -2.604749614073E+01 -2.598075655275E+01
 -2.590980267555E+01 -2.583454790950E+01 -2.575490874531E+01 -2.567080508936E+01
 -2.558216059224E+01 -2.548890297836E+01 -2.539096437434E+01 -2.528828163387E+01
 -2.518079665675E+01 -2.506845669979E+01 -2.495121467760E+01 -2.482902945132E+01
 -2.470186610397E+01 -2.456969620129E+01 -2.443249803770E+01 -2.429025686722E+01
 -2.414296512039E+01 -2.399062260823E+01 -2.383323671558E+01 -2.367082258643E+01
 -2.350340330486E+01 -2.333101007574E+01 -2.315368241043E+01 -2.297146832300E+01
 -2.278442454408E+01 -2.259261675990E+01 -2.239611988551E+01 -2.219501838244E+01
 -2.198940663268E+01 -2.177938938266E+01 -2.156508227285E+01 -2.134661247122E+01
 -2.112411943118E+01 -2.089775579748E+01 -2.066768848632E+01 -2.043409996910E+01
 -2.019718979125E+01 -1.995717636054E+01 -1.971429903990E+01 -1.946882058079E+01
 -1.922102993145E+01 -1.897124545185E+01 -1.871981856144E+01 -1.846713783811E+01
 -1.821363357559E+01 -1.795978279298E+01 -1.770611467230E+01 -1.745321638040E+01
 -1.720173920837E+01 -1.695240493694E+01 -1.670601230960E+01 -1.646344346828E+01
 -1.622567017912E+01 -1.599375965039E+01 -1.576887972117E+01 -1.555230318074E+01
 -1.534541096649E+01 -1.514969389892E+01 -1.496675384451E+01 -1.479173688853E+01