<?xml version="1.0" encoding="UTF-8" ?>
<psml version="1.1" energy_unit="hartree" length_unit="bohr"
 uuid="020bdba0-be42-11e7-6ded-a592ddfb3399"
 xmlns="http://esl.cecam.org/PSML/ns/1.1">
<provenance creator="ONCVPSP-3.3.0+psml-3.3.0-73 (scalar-relativistic)"
 date="2017-10-31">
<annotation action="semilocal-pseudopotential-generation"
 action-cont="projectors-generation" />
<input-file name="oncvpsp-input">
<![CDATA[# atsym z nc nv iexc psfile
Ni 28 3 4 4 upf
# n l f
1 0 2.0
2 0 2.0
2 1 6.0
3 0 2.0
3 1 6.0
3 2 8.0
4 0 2.0
# lmax
2
# l rc ep ncon nbas qcut
0 1.25 0.0 4 8 9.7
1 1.35 0.0 4 8 9.7
2 1.65 0.0 4 8 9.7
# lloc lpopt rc5 dvloc0
4 5 1.2 0.0
# l nproj debl
0 2 1.0
1 2 2.8
2 2 1.0
# icmod fcfact
3 3 1.7
# epsh1 epsh2 depsh
-12.0 12.0 0.02
# rlmax drl
6.0 0.01
 0
]]>
</input-file>
</provenance>
<pseudo-atom-spec atomic-label="Ni" atomic-number="28" z-pseudo="18"
 flavor="Hamann&apos;s oncvpsp" relativity="scalar" spin-dft="no"
 core-corrections="yes">
<annotation pseudo-energy="-163.884790493" />
<exchange-correlation>
<annotation oncvpsp-xc-code="4" oncvpsp-xc-type="GGA -- Perdew-Burke-Ernzerhof" />
<libxc-info number-of-functionals="2">
<functional name="Perdew, Burke &amp; Ernzerhof (GGA)" type="exchange" id="101" />
<functional name="Perdew, Burke &amp; Ernzerhof (GGA)" type="correlation"
 id="130" />
</libxc-info>
</exchange-correlation>
<valence-configuration total-valence-charge="18">
<shell n="3" l="s" occupation="2" />
<shell n="3" l="p" occupation="6" />
<shell n="3" l="d" occupation="8" />
<shell n="4" l="s" occupation="2" />
</valence-configuration>
</pseudo-atom-spec>
<grid npts="457">
<annotation type="sampled from oncvpsp log grid"
 recipe="r(i:1..N) = r1*exp(a*(i-1)) + r=0; resampled"
 recipe-cont="r1: scale; a: step" scale="0.178571428571E-04"
 step="0.119285708653E-01" delta="0.500000000000E-02" rmax="44.1127774257" />
<grid-data>
  0.000000000000E+00  5.037260227087E-03  1.006153199362E-02  1.509390240677E-02
  2.009712055657E-02  2.520946187690E-02  3.051067215696E-02  3.562857378909E-02
  4.111161976253E-02  4.632012396247E-02  5.156966681787E-02  5.673334959985E-02
  6.241407314470E-02  6.784941587428E-02  7.288349463671E-02  7.829107623126E-02
  8.409987265294E-02  8.926843081494E-02  9.475463504026E-02  1.005780070250E-01
  1.067592682175E-01  1.119766932335E-01  1.174490986765E-01  1.231889456778E-01
  1.292093043559E-01  1.355238835779E-01  1.421470621764E-01  1.473260095757E-01
  1.526936453359E-01  1.582568440774E-01  1.640227308887E-01  1.699986904517E-01
  1.761923764999E-01  1.826117216210E-01  1.892649474162E-01  1.961605750303E-01
  2.033074360652E-01  2.107146838912E-01  2.158021792191E-01  2.210125070342E-01
  2.263486330040E-01  2.318135943992E-01  2.374105018224E-01  2.431425409784E-01
  2.490129744878E-01  2.550251437438E-01  2.611824708144E-01  2.674884603897E-01
  2.739467017774E-01  2.805608709451E-01  2.873347326132E-01  2.942721423974E-01
  3.013770490034E-01  3.086534964746E-01  3.161056264935E-01  3.237376807395E-01
  3.315540033033E-01  3.395590431590E-01  3.477573566971E-01  3.561536103172E-01
  3.647525830847E-01  3.735591694507E-01  3.825783820379E-01  3.918153544938E-01
  4.012753444127E-01  4.109637363282E-01  4.208860447781E-01  4.259366773154E-01
  4.310479174432E-01  4.362204924526E-01  4.414551383620E-01  4.467526000223E-01
  4.521136312226E-01  4.575389947973E-01  4.630294627348E-01  4.685858162877E-01
  4.742088460831E-01  4.798993522361E-01  4.856581444629E-01  4.914860421965E-01
  4.973838747028E-01  5.033524811993E-01  5.093927109737E-01  5.155054235054E-01
  5.216914885874E-01  5.279517864505E-01  5.342872078879E-01  5.406986543825E-01
  5.471870382351E-01  5.537532826939E-01  5.603983220863E-01  5.671231019513E-01
  5.739285791747E-01  5.808157221248E-01  5.877855107903E-01  5.948389369198E-01
  6.019770041628E-01  6.092007282128E-01  6.165111369513E-01  6.239092705948E-01
  6.313961818419E-01  6.389729360240E-01  6.466406112563E-01  6.544002985914E-01
  6.622531021745E-01  6.702001394006E-01  6.782425410734E-01  6.863814515662E-01
  6.946180289850E-01  7.029534453329E-01  7.113888866768E-01  7.199255533170E-01
  7.285646599568E-01  7.373074358763E-01  7.461551251068E-01  7.551089866081E-01
  7.641702944473E-01  7.733403379807E-01  7.826204220365E-01  7.920118671009E-01
  8.015160095061E-01  8.111342016202E-01  8.208678120397E-01  8.307182257841E-01
  8.406868444935E-01  8.507750866275E-01  8.609843876670E-01  8.713162003190E-01
  8.817719947228E-01  8.923532586595E-01  9.030614977634E-01  9.138982357366E-01
  9.248650145654E-01  9.359633947402E-01  9.471949554771E-01  9.585612949428E-01
  9.700640304821E-01  9.817047988479E-01  9.934852564341E-01  1.005407079511E+00
  1.017471964465E+00  1.029681628039E+00  1.042037807575E+00  1.054542261266E+00
  1.067196768402E+00  1.080003129622E+00  1.092963167178E+00  1.106078725184E+00
  1.119351669886E+00  1.132783889925E+00  1.146377296604E+00  1.160133824163E+00
  1.174055430053E+00  1.188144095214E+00  1.202401824356E+00  1.216830646249E+00
  1.231432614004E+00  1.246209805372E+00  1.261164323036E+00  1.276298294913E+00
  1.291613874451E+00  1.307113240945E+00  1.322798599836E+00  1.338672183034E+00
  1.354736249231E+00  1.370993084221E+00  1.387445001232E+00  1.404094341247E+00
  1.420943473342E+00  1.437994795022E+00  1.455250732562E+00  1.472713741353E+00
  1.490386306249E+00  1.508270941924E+00  1.526370193227E+00  1.544686635546E+00
  1.563222875173E+00  1.581981549675E+00  1.600965328271E+00  1.620176912210E+00
  1.639619035157E+00  1.659294463578E+00  1.679205997141E+00  1.699356469107E+00
  1.719748746736E+00  1.740385731697E+00  1.761270360478E+00  1.782405604803E+00
  1.803794472061E+00  1.825440005726E+00  1.847345285794E+00  1.869513429224E+00
  1.891947590375E+00  1.914650961459E+00  1.937626772997E+00  1.960878294273E+00
  1.984408833804E+00  2.008221739809E+00  2.032320400687E+00  2.056708245495E+00
  2.081388744441E+00  2.106365409375E+00  2.131641794287E+00  2.157221495819E+00
  2.183108153768E+00  2.209305451614E+00  2.235817117033E+00  2.262646922437E+00
  2.289798685507E+00  2.317276269733E+00  2.345083584969E+00  2.373224587989E+00
  2.401703283045E+00  2.430523722442E+00  2.459690007111E+00  2.489206287196E+00
  2.519076762643E+00  2.549305683794E+00  2.579897352000E+00  2.610856120224E+00
  2.642186393666E+00  2.673892630390E+00  2.705979341955E+00  2.738451094059E+00
  2.771312507187E+00  2.804568257274E+00  2.838223076361E+00  2.872281753277E+00
  2.906749134316E+00  2.941630123928E+00  2.976929685415E+00  3.012652841640E+00
  3.048804675740E+00  3.085390331849E+00  3.122415015831E+00  3.159883996021E+00
  3.197802603973E+00  3.236176235221E+00  3.275010350044E+00  3.314310474244E+00
  3.354082199935E+00  3.394331186334E+00  3.435063160570E+00  3.476283918497E+00
  3.517999325519E+00  3.560215317425E+00  3.602937901235E+00  3.646173156049E+00
  3.689927233922E+00  3.734206360729E+00  3.779016837058E+00  3.824365039102E+00
  3.870257419572E+00  3.916700508607E+00  3.963700914710E+00  4.011265325686E+00
  4.059400509595E+00  4.108113315710E+00  4.157410675498E+00  4.207299603604E+00
  4.257787198847E+00  4.308880645234E+00  4.360587212976E+00  4.412914259532E+00
  4.465869230647E+00  4.519459661414E+00  4.573693177351E+00  4.628577495479E+00
  4.684120425425E+00  4.740329870530E+00  4.797213828977E+00  4.854780394924E+00
  4.913037759664E+00  4.971994212779E+00  5.031658143333E+00  5.092038041053E+00
  5.153142497545E+00  5.214980207516E+00  5.277559970006E+00  5.340890689646E+00
  5.404981377922E+00  5.469841154457E+00  5.535479248311E+00  5.601904999290E+00
  5.669127859282E+00  5.737157393593E+00  5.806003282316E+00  5.875675321704E+00
  5.946183425565E+00  6.017537626671E+00  6.089748078191E+00  6.162825055130E+00
  6.236778955791E+00  6.311620303261E+00  6.387359746900E+00  6.464008063863E+00
  6.541576160629E+00  6.620075074557E+00  6.699515975451E+00  6.779910167157E+00
  6.861269089162E+00  6.943604318232E+00  7.026927570051E+00  7.111250700892E+00
  7.196585709303E+00  7.282944737814E+00  7.370340074668E+00  7.458784155564E+00
  7.548289565431E+00  7.638869040216E+00  7.730535468698E+00  7.823301894323E+00
  7.917181517055E+00  8.012187695259E+00  8.108333947603E+00  8.205633954974E+00
  8.304101562433E+00  8.403750781183E+00  8.504595790557E+00  8.606650940043E+00
  8.709930751324E+00  8.814449920340E+00  8.920223319384E+00  9.027265999217E+00
  9.135593191207E+00  9.245220309502E+00  9.356162953216E+00  9.468436908654E+00
  9.582058151558E+00  9.697042849377E+00  9.813407363569E+00  9.931168251932E+00
  1.005034227096E+01  1.017094637821E+01  1.029299773475E+01  1.041651370756E+01
  1.054151187205E+01  1.066801001452E+01  1.079602613469E+01  1.092557844831E+01
  1.105668538969E+01  1.118936561436E+01  1.132363800174E+01  1.145952165776E+01
  1.159703591765E+01  1.173620034866E+01  1.187703475285E+01  1.201955916988E+01
  1.216379387992E+01  1.230975940648E+01  1.245747651936E+01  1.260696623759E+01
  1.275824983244E+01  1.291134883043E+01  1.306628501639E+01  1.322308043659E+01
  1.338175740183E+01  1.354233849065E+01  1.370484655254E+01  1.386930471117E+01
  1.403573636770E+01  1.420416520412E+01  1.437461518657E+01  1.454711056880E+01
  1.472167589563E+01  1.489833600638E+01  1.507711603845E+01  1.525804143092E+01
  1.544113792809E+01  1.562643158322E+01  1.581394876222E+01  1.600371614737E+01
  1.619576074114E+01  1.639010987003E+01  1.658679118847E+01  1.678583268273E+01
  1.698726267493E+01  1.719110982702E+01  1.739740314495E+01  1.760617198269E+01
  1.781744604648E+01  1.803125539904E+01  1.824763046383E+01  1.846660202939E+01
  1.868820125375E+01  1.891245966879E+01  1.913940918482E+01  1.936908209503E+01
  1.960151108017E+01  1.983672921314E+01  2.007476996369E+01  2.031566720326E+01
  2.055945520970E+01  2.080616867221E+01  2.105584269628E+01  2.130851280864E+01
  2.156421496234E+01  2.182298554189E+01  2.208486136839E+01  2.234987970481E+01
  2.261807826127E+01  2.288949520040E+01  2.316416914281E+01  2.344213917252E+01
  2.372344484259E+01  2.400812618070E+01  2.429622369487E+01  2.458777837921E+01
  2.488283171976E+01  2.518142570040E+01  2.548360280880E+01  2.578940604251E+01
  2.609887891502E+01  2.641206546200E+01  2.672901024754E+01  2.704975837051E+01
  2.737435547096E+01  2.770284773661E+01  2.803528190945E+01  2.837170529236E+01
  2.871216575587E+01  2.905671174494E+01  2.940539228588E+01  2.975825699331E+01
  3.011535607723E+01  3.047674035016E+01  3.084246123436E+01  3.121257076917E+01
  3.158712161840E+01  3.196616707782E+01  3.234976108276E+01  3.273795821575E+01
  3.313081371434E+01  3.352838347891E+01  3.393072408066E+01  3.433789276963E+01
  3.474994748286E+01  3.516694685266E+01  3.558895021489E+01  3.601601761747E+01
  3.644820982888E+01  3.688558834682E+01  3.732821540699E+01  3.777615399187E+01
  3.822946783977E+01  3.868822145385E+01  3.915248011129E+01  3.962230987263E+01
  4.009777759110E+01  4.057895092220E+01  4.106589833326E+01  4.155868911326E+01
  4.205739338262E+01  4.256208210321E+01  4.307282708845E+01  4.358970101351E+01
  4.411277742567E+01
</grid-data>
</grid>
<valence-charge total-charge="18" is-unscreening-charge="yes"
 rescaled-to-z-pseudo="no">
<radfunc>
<data npts="457">
  1.584453272259E+01  1.585318412080E+01  1.587904124491E+01  1.592216394603E+01
  1.598208633572E+01  1.606081959652E+01  1.616106804853E+01  1.627572884020E+01
  1.641793454035E+01  1.657143456441E+01  1.674414369331E+01  1.693149119177E+01
  1.715738800675E+01  1.739270065268E+01  1.762714435167E+01  1.789641051843E+01
  1.820544474077E+01  1.849735112717E+01  1.882431321841E+01  1.919025935315E+01
  1.959948005227E+01  1.996113536989E+01  2.035602459785E+01  2.078686073816E+01
  2.125650316893E+01  2.176794733077E+01  2.232430860623E+01  2.277298584171E+01
  2.325011499679E+01  2.375708749449E+01  2.429529346458E+01  2.486610711454E+01
  2.547086916804E+01  2.611086596603E+01  2.678730479066E+01  2.750128493928E+01
  2.825376404739E+01  2.904551913786E+01  2.959545904766E+01  3.016320329255E+01
  3.074878741247E+01  3.135217689960E+01  3.197325845017E+01  3.261183054344E+01
  3.326759333282E+01  3.394013784079E+01  3.462893445805E+01  3.533332075734E+01
  3.605248864524E+01  3.678547089045E+01  3.753112708481E+01  3.828812911441E+01
  3.905494624271E+01  3.982982993542E+01  4.061079858913E+01  4.139562236184E+01
  4.218180834371E+01  4.296658635135E+01  4.374689567768E+01  4.451937318212E+01
  4.528034316245E+01  4.602580950794E+01  4.675145069457E+01  4.745261824304E+01
  4.812433931953E+01  4.876132421345E+01  4.935797947399E+01  4.963935716480E+01
  4.990842752351E+01  5.016441587381E+01  5.040653358739E+01  5.063397938457E+01
  5.084594078151E+01  5.104159568978E+01  5.122011417384E+01  5.138066037138E+01
  5.152239458119E+01  5.164447552226E+01  5.174606276735E+01  5.182631935330E+01
  5.188441456933E+01  5.191952692356E+01  5.193084728674E+01  5.191758221083E+01
  5.187895741850E+01  5.181422145812E+01  5.172264951687E+01  5.160354738295E+01
  5.145625554551E+01  5.128015341891E+01  5.107466367584E+01  5.083925667090E+01
  5.057345493430E+01  5.027683771238E+01  4.994904552920E+01  4.958978474061E+01
  4.919883204975E+01  4.877603895000E+01  4.832133605896E+01  4.783473730449E+01
  4.731634392137E+01  4.676634821520E+01  4.618503704792E+01  4.557279499786E+01
  4.493010714609E+01  4.425756143958E+01  4.355585058179E+01  4.282577340118E+01
  4.206823564898E+01  4.128425017916E+01  4.047493646557E+01  3.964151941446E+01
  3.878532743419E+01  3.790778972885E+01  3.701043278810E+01  3.609487605210E+01
  3.516282673794E+01  3.421607382222E+01  3.325648118401E+01  3.228597992223E+01
  3.130655987237E+01  3.032026035893E+01  2.932916023188E+01  2.833536724753E+01
  2.734100686660E+01  2.634821055455E+01  2.535910368096E+01  2.437579312608E+01
  2.340035471331E+01  2.243482059498E+01  2.148116672726E+01  2.054130057546E+01
  1.961704919512E+01  1.871014783605E+01  1.782222921530E+01  1.695481360172E+01
  1.610929984819E+01  1.528695749827E+01  1.448892008199E+01  1.371617970007E+01
  1.296958297869E+01  1.224982845651E+01  1.155746544370E+01  1.089289436918E+01
  1.025636860734E+01  9.647997750439E+00  9.067752267488E+00  8.515469466420E+00
  7.990860652974E+00  7.493519359180E+00  7.022930496011E+00  6.578480269929E+00
  6.159466691830E+00  5.765110499856E+00  5.394566314740E+00  5.046933848068E+00
  4.721268989825E+00  4.416594611636E+00  4.131910936211E+00  3.866205556942E+00
  3.618463566986E+00  3.387677184948E+00  3.172852604000E+00  2.973016062206E+00
  2.787218942945E+00  2.614541693175E+00  2.454095731984E+00  2.305024398768E+00
  2.166506299733E+00  2.037758011894E+00  1.918036293783E+00  1.806639790664E+00
  1.702910268105E+00  1.606233405707E+00  1.516039179561E+00  1.431801857873E+00
  1.353039629870E+00  1.279313883942E+00  1.210228147447E+00  1.145426698109E+00
  1.084592855721E+00  1.027446963165E+00  9.737427644837E-01  9.232584786346E-01
  8.757852450392E-01  8.311266568052E-01  7.890981447494E-01  7.495264567245E-01
  7.122491403973E-01  6.771140317137E-01  6.439787510173E-01  6.127102085365E-01
  5.831841207171E-01  5.552845386512E-01  5.289033896496E-01  5.039400328132E-01
  4.803008292850E-01  4.578987277107E-01  4.366528652911E-01  4.164881846885E-01
  3.973350669341E-01  3.791289803874E-01  3.618101457086E-01  3.453232167325E-01
  3.296169770605E-01  3.146440521301E-01  3.003606364713E-01  2.867262358112E-01
  2.737034236509E-01  2.612576119058E-01  2.493568351720E-01  2.379715481579E-01
  2.270744358024E-01  2.166402355869E-01  2.066455715366E-01  1.970687994038E-01
  1.878898625177E-01  1.790901577914E-01  1.706524113756E-01  1.625605634568E-01
  1.547996617054E-01  1.473557628900E-01  1.402158421855E-01  1.333677097169E-01
  1.267999338963E-01  1.205017711251E-01  1.144631014511E-01  1.086743697885E-01
  1.031265323247E-01  9.781100775654E-02  9.271963301852E-02  8.784462318104E-02
  8.317853521600E-02  7.871423534477E-02  7.444486970024E-02  7.036383805154E-02
  6.646477035615E-02  6.274150591910E-02  5.918807495383E-02  5.579868235257E-02
  5.256769348703E-02  4.948962187170E-02  4.655911853285E-02  4.377096293609E-02
  4.112005533205E-02  3.860141040040E-02  3.621015204384E-02  3.394150924215E-02
  3.179081283923E-02  2.975349315939E-02  2.782507835098E-02  2.600119335945E-02
  2.427755943659E-02  2.264999409705E-02  2.111441143747E-02  1.966682273867E-02
  1.830333727578E-02  1.702016326695E-02  1.581360889627E-02  1.468008335255E-02
  1.361609783158E-02  1.261826645538E-02  1.168330706829E-02  1.080804187601E-02
  9.989397899463E-03  9.224407221649E-03  8.510207011058E-03  7.844039310781E-03
  7.223250587309E-03  6.645291037678E-03  6.107713657742E-03  5.608173077988E-03
  5.144424176517E-03  4.714320481479E-03  4.315812377435E-03  3.946945131896E-03
  3.605856759526E-03  3.290775742398E-03  3.000018625138E-03  2.731987503949E-03
  2.485167428264E-03  2.258123733342E-03  2.049499321367E-03  1.858011907688E-03
  1.682451247787E-03  1.521676359278E-03  1.374612752017E-03  1.240249677989E-03
  1.117637411297E-03  1.005884567224E-03  9.041554680003E-04  8.116675616848E-04
  7.276888993914E-04  6.515356750269E-04  5.825698307602E-04  5.201967306083E-04
  4.638629038021E-04  4.130538590024E-04  3.672919699418E-04  3.261344326791E-04
  2.891712943545E-04  2.560235531073E-04  2.263413286596E-04  1.998021029569E-04
  1.761090301819E-04  1.549893154114E-04  1.361926611483E-04  1.194897809348E-04
  1.046709792244E-04  9.154479665191E-05  7.993671980087E-05  6.968795450927E-05
  6.065426168801E-05  5.270485454889E-05  4.572135605031E-05  3.959681527402E-05
  3.423478134576E-05  2.954843341065E-05  2.545976507240E-05  2.189882160765E-05
  1.880298817467E-05  1.611632715183E-05  1.378896266789E-05  1.177651032407E-05
  1.003955005855E-05  8.543140068419E-06  7.256369681884E-06  6.151949065111E-06
  5.205833653323E-06  4.396881213455E-06  3.706539475588E-06  3.118562313469E-06
  2.618752483777E-06  2.194729127298E-06  1.835717775844E-06  1.532362037717E-06
  1.276554139436E-06  1.061283222069E-06  8.804996868461E-07  7.289947373451E-07
  6.022934415680E-07  4.965597975809E-07  4.085127651310E-07  3.353522188637E-07
  2.746938117156E-07  2.245118196850E-07  1.830891157733E-07  1.489734939406E-07
  1.209396331825E-07  9.795605716819E-08  7.915650616710E-08  6.381519522180E-08
  5.132548569747E-08  4.118154652452E-08  3.296262674586E-08  2.631960251477E-08
  2.096349961708E-08  1.665572708534E-08  1.319978872036E-08  1.043426753234E-08
  8.226903461299E-09  6.469607438006E-09  5.074275102774E-09  3.969281509014E-09
  3.096554092807E-09  2.409135273444E-09  1.869158438645E-09  1.446171928009E-09
  1.115755114882E-09  8.583789454310E-10  6.584704585292E-10  5.036470047890E-10
  3.840912207867E-10  2.920423982036E-10  2.213838095830E-10  1.672400327192E-10
  1.260037797542E-10  9.463862469888E-11  7.085638539810E-11  5.288095408120E-11
  3.933807048235E-11  2.916781235217E-11  2.155534688009E-11  1.587631219290E-11
  1.165388084598E-11  8.525119805205E-12  6.214723326184E-12  4.514573024789E-12
  3.267887463380E-12  2.356973748905E-12  1.693796073666E-12  1.212739329187E-12
  8.650770014662E-13  6.147574377578E-13  4.352061774555E-13  3.069084245210E-13
  2.155882482159E-13  1.508424707011E-13  1.051196681966E-13  7.296009159560E-14
  5.043207072311E-14  3.471578626802E-14  2.379712312813E-14  1.624341575482E-14
  1.103986211954E-14  7.470694695491E-15  5.033229886246E-15  3.375966244104E-15
  2.254196680806E-15  1.498319547500E-15  9.913163627572E-16  6.528167129467E-16
  4.278751767514E-16  2.791034058696E-16  1.811800924737E-16  1.170382682077E-16
  7.523013284592E-17  4.811455167270E-17  3.061650240545E-17  1.938218037590E-17
  1.220649242136E-17  7.647040724147E-18  4.765218217978E-18  2.953461268041E-18
  1.820584118550E-18  1.116073386695E-18  6.803752262281E-19  4.124286479648E-19
  2.485788947922E-19  1.489583725681E-19  8.874023961920E-20  5.255338379849E-20
  3.093671426833E-20  1.810129692661E-20  1.052628933260E-20  6.083297400159E-21
  0.000000000000E+00  0.000000000000E+00  0.000000000000E+00  0.000000000000E+00
  0.000000000000E+00  0.000000000000E+00  0.000000000000E+00  0.000000000000E+00
  0.000000000000E+00  0.000000000000E+00  0.000000000000E+00  0.000000000000E+00
  0.000000000000E+00  0.000000000000E+00  0.000000000000E+00  0.000000000000E+00
  0.000000000000E+00  0.000000000000E+00  0.000000000000E+00  0.000000000000E+00
  0.000000000000E+00
</data>
</radfunc>
</valence-charge>
<pseudocore-charge matching-radius="0.387169322622"
 number-of-continuous-derivatives="4">
<annotation model-charge-form="Teter function with specified parameters" />
<radfunc>
<data npts="290">
  1.447538698829E+02  1.447270846031E+02  1.446470325242E+02  1.445135386144E+02
  1.443280618677E+02  1.440844016818E+02  1.437742252130E+02  1.434195487108E+02
  1.429798052014E+02  1.425053048538E+02  1.419716327018E+02  1.413929739375E+02
  1.406955847928E+02  1.399695133378E+02  1.392465094593E+02  1.384165845756E+02
  1.374646939855E+02  1.365661441919E+02  1.355603438573E+02  1.344354259544E+02
  1.331784607321E+02  1.320684312319E+02  1.308572600981E+02  1.295368262313E+02
  1.280985858518E+02  1.265336023546E+02  1.248325912526E+02  1.234618167851E+02
  1.220050327161E+02  1.204580849940E+02  1.188168114954E+02  1.170770781524E+02
  1.152348213809E+02  1.132860974222E+02  1.112271392005E+02  1.090544212647E+02
  1.067647333308E+02  1.043552628444E+02  1.026812330449E+02  1.009523751658E+02
  9.916827328927E+01  9.732865757158E+01  9.543342016396E+01  9.348263184115E+01
  9.147655926655E+01  8.941568280211E+01  8.730071474760E+01  8.513261786759E+01
  8.291262403602E+01  8.064225279659E+01  7.832332960353E+01  7.595800347141E+01
  7.354876372438E+01  7.109845549643E+01  6.861029359378E+01  6.608787429086E+01
  6.353518459255E+01  6.095660845900E+01  5.835692945726E+01  5.574132927725E+01
  5.311538153140E+01  5.048504024884E+01  4.785662247983E+01  4.523678444666E+01
  4.263249071615E+01  4.005097593060E+01  3.749969871944E+01  3.623777810950E+01
  3.498628752833E+01  3.374619683199E+01  3.251847824632E+01  3.130410397527E+01
  3.010404368897E+01  2.891926189594E+01  2.775071520485E+01  2.659934948270E+01
  2.546609691714E+01  2.435187299214E+01  2.325757338731E+01  2.218407081270E+01
  2.113221179206E+01  2.010281340905E+01  1.909666003213E+01  1.811450003531E+01
  1.715704253332E+01  1.622495415077E+01  1.531885584646E+01  1.443931981493E+01
  1.358686648840E+01  1.276196166318E+01  1.196501377552E+01  1.119637135221E+01
  1.045632066197E+01  9.745083593626E+00  9.062815786938E+00  8.409605041993E+00
  7.785470031954E+00  7.190359343378E+00  6.624150866839E+00  6.086651559036E+00
  5.577597595502E+00  5.096654930685E+00  4.643420279360E+00  4.217422530191E+00
  3.818124598707E+00  3.444925723066E+00  3.097164201700E+00  2.774120567392E+00
  2.475021187455E+00  2.199042274636E+00  1.945314288046E+00  1.712926698114E+00
  1.500933084077E+00  1.308356527190E+00  1.134195257594E+00  9.774285077682E-01
  8.370225208399E-01  7.119366578081E-01  6.011295440795E-01  5.035651927330E-01
  4.182190397290E-01  3.440838249574E-01  2.801752526881E-01  2.255373657157E-01
  1.792475693539E-01  1.404212444868E-01  1.082158931422E-01  8.183476552999E-02
  6.052992414603E-02  4.360470833441E-02  3.041557152398E-02  2.037327309179E-02
  1.294341729024E-02  7.646342714807E-03  4.056377157287E-03  1.800484133394E-03
  5.563386149510E-04  4.988024311534E-05  5.240224760078E-05  3.772431455828E-04
  8.761557515393E-04  1.435433825713E-03  1.971880587404E-03  2.428705127886E-03
  2.771432340346E-03  2.983909270973E-03  3.064485791108E-03  3.022440281298E-03
  2.874711774926E-03  2.642988987649E-03  2.351194195911E-03  2.023386433685E-03
  1.682094422702E-03  1.347075553924E-03  1.034483637519E-03  7.564155766411E-04
  5.207961132745E-04  3.315508066805E-04  1.890108217995E-04  9.048920799800E-05
  3.096729425116E-05  3.831631047721E-06  1.606438355046E-06  1.663348956965E-05
  4.166034971728E-05  7.030834691960E-05  9.740295094205E-05  1.191606670314E-04
  1.332374203188E-04  1.386530340180E-04  1.356142051801E-04  1.252638953321E-04
  1.093879874186E-04  9.011031697267E-05  6.960487373879E-05  4.984940333669E-05
  3.243831262586E-05  1.846533625947E-05  8.478583706161E-06  2.503107631500E-06
  1.197203678265E-07  5.840223445757E-07  2.966903465445E-06  6.297320748890E-06
  9.689882280506E-06  1.244337580451E-05  1.410135738482E-05  1.447159738698E-05
  1.360683145932E-05  1.175416668769E-05  9.284043260500E-06  6.611438618019E-06
  4.121863732725E-06  2.112754396261E-06  7.574787916106E-07  9.494669092398E-08
  0.000000000000E+00  0.000000000000E+00  0.000000000000E+00  0.000000000000E+00
  0.000000000000E+00  0.000000000000E+00  0.000000000000E+00  0.000000000000E+00
  0.000000000000E+00  0.000000000000E+00  0.000000000000E+00  0.000000000000E+00
  0.000000000000E+00  0.000000000000E+00  0.000000000000E+00  0.000000000000E+00
  0.000000000000E+00  0.000000000000E+00  0.000000000000E+00  0.000000000000E+00
  0.000000000000E+00  0.000000000000E+00  0.000000000000E+00  0.000000000000E+00
  0.000000000000E+00  0.000000000000E+00  0.000000000000E+00  0.000000000000E+00
  0.000000000000E+00  0.000000000000E+00  0.000000000000E+00  0.000000000000E+00
  0.000000000000E+00  0.000000000000E+00  0.000000000000E+00  0.000000000000E+00
  0.000000000000E+00  0.000000000000E+00  0.000000000000E+00  0.000000000000E+00
  0.000000000000E+00  0.000000000000E+00  0.000000000000E+00  0.000000000000E+00
  0.000000000000E+00  0.000000000000E+00  0.000000000000E+00  0.000000000000E+00
  0.000000000000E+00  0.000000000000E+00  0.000000000000E+00  0.000000000000E+00
  0.000000000000E+00  0.000000000000E+00  0.000000000000E+00  0.000000000000E+00
  0.000000000000E+00  0.000000000000E+00  0.000000000000E+00  0.000000000000E+00
  0.000000000000E+00  0.000000000000E+00  0.000000000000E+00  0.000000000000E+00
  0.000000000000E+00  0.000000000000E+00  0.000000000000E+00  0.000000000000E+00
  0.000000000000E+00  0.000000000000E+00  0.000000000000E+00  0.000000000000E+00
  0.000000000000E+00  0.000000000000E+00  0.000000000000E+00  0.000000000000E+00
  0.000000000000E+00  0.000000000000E+00  0.000000000000E+00  0.000000000000E+00
  0.000000000000E+00  0.000000000000E+00  0.000000000000E+00  0.000000000000E+00
  0.000000000000E+00  0.000000000000E+00  0.000000000000E+00  0.000000000000E+00
  0.000000000000E+00  0.000000000000E+00  0.000000000000E+00  0.000000000000E+00
  0.000000000000E+00  0.000000000000E+00
</data>
</radfunc>
</pseudocore-charge>
<semilocal-potentials set="scalar_relativistic">
<slps n="3" l="s" rc="1.26116432304" eref="-4.08135523408">
<radfunc>
<data npts="290">
 -2.560830116283E+01 -2.560863590226E+01 -2.560963627718E+01 -2.561130438090E+01
 -2.561362182118E+01 -2.561666582674E+01 -2.562054012210E+01 -2.562496927920E+01
 -2.563045925287E+01 -2.563638122428E+01 -2.564303919501E+01 -2.565025529031E+01
 -2.565894746759E+01 -2.566799158964E+01 -2.567699156303E+01 -2.568731477229E+01
 -2.569914431173E+01 -2.571029975937E+01 -2.572277300288E+01 -2.573670520830E+01
 -2.575224847852E+01 -2.576595197714E+01 -2.578087807340E+01 -2.579711776515E+01
 -2.581476460467E+01 -2.583391360857E+01 -2.585465979255E+01 -2.587132371732E+01
 -2.588897628580E+01 -2.590765316735E+01 -2.592738705518E+01 -2.594820664011E+01
 -2.597013540260E+01 -2.599319019831E+01 -2.601737961019E+01 -2.604270203807E+01
 -2.606914349448E+01 -2.609667507382E+01 -2.611561284377E+01 -2.613499588014E+01
 -2.615480064070E+01 -2.617499842492E+01 -2.619555481311E+01 -2.621642906196E+01
 -2.623757345518E+01 -2.625893260785E+01 -2.628044272355E+01 -2.630203080372E+01
 -2.632361380947E+01 -2.634509777619E+01 -2.636637688274E+01 -2.638733247733E+01
 -2.640783206365E+01 -2.642772825183E+01 -2.644685768029E+01 -2.646503991605E+01
 -2.648207634287E+01 -2.649774904827E+01 -2.651181972283E+01 -2.652402858672E+01
 -2.653409336120E+01 -2.654170830419E+01 -2.654654333166E+01 -2.654824324792E+01
 -2.654642710970E+01 -2.654068774990E+01 -2.653059148804E+01 -2.652376672044E+01
 -2.651567805444E+01 -2.650626382887E+01 -2.649546075594E+01 -2.648320394153E+01
 -2.646942691042E+01 -2.645406163645E+01 -2.643703857818E+01 -2.641828671989E+01
 -2.639773361853E+01 -2.637530545664E+01 -2.635092710160E+01 -2.632452217152E+01
 -2.629601310807E+01 -2.626532125651E+01 -2.623236695347E+01 -2.619706962263E+01
 -2.615934787892E+01 -2.611911964150E+01 -2.607630225610E+01 -2.603081262711E+01
 -2.598256735987E+01 -2.593148291360E+01 -2.587747576548E+01 -2.582046258605E+01
 -2.576036042646E+01 -2.569708691761E+01 -2.563056048125E+01 -2.556070055322E+01
 -2.548742781822E+01 -2.541066445597E+01 -2.533033439796E+01 -2.524636359386E+01
 -2.515868028637E+01 -2.506721529312E+01 -2.497190229379E+01 -2.487267812042E+01
 -2.476948304880E+01 -2.466226108829E+01 -2.455096026778E+01 -2.443553291497E+01
 -2.431593592643E+01 -2.419213102612E+01 -2.406408500997E+01 -2.393176997469E+01
 -2.379516352936E+01 -2.365424898872E+01 -2.350901554786E+01 -2.335945843837E+01
 -2.320557906701E+01 -2.304738513820E+01 -2.288489076281E+01 -2.271811655594E+01
 -2.254708972733E+01 -2.237184416880E+01 -2.219242054346E+01 -2.200886638272E+01
 -2.182123619763E+01 -2.162959161241E+01 -2.143400152909E+01 -2.123454233395E+01
 -2.103129815803E+01 -2.082436120650E+01 -2.061383217400E+01 -2.039982076622E+01
 -2.018244635113E+01 -1.996183876702E+01 -1.973813931805E+01 -1.951150199192E+01
 -1.928209493724E+01 -1.905010224138E+01 -1.881572605106E+01 -1.857918907820E+01
 -1.834073753203E+01 -1.810064451456E+01 -1.785921390969E+01 -1.761678478678E+01
 -1.737373632676E+01 -1.713049326350E+01 -1.688753181516E+01 -1.664538606042E+01
 -1.640465469339E+01 -1.616600806995E+01 -1.593019543677E+01 -1.569805221444E+01
 -1.547050718751E+01 -1.524858943725E+01 -1.503343483894E+01 -1.482629193455E+01