<?xml version="1.0" encoding="UTF-8" ?>
<psml version="1.1" energy_unit="hartree" length_unit="bohr"
 uuid="41dbe7e0-be63-11e7-4e94-c793f77da411"
 xmlns="http://esl.cecam.org/PSML/ns/1.1">
<provenance creator="ONCVPSP-3.3.0+psml-3.3.0-73 (scalar-relativistic)"
 date="2017-10-31">
<annotation action="semilocal-pseudopotential-generation"
 action-cont="projectors-generation" />
<input-file name="oncvpsp-input">
<![CDATA[# atsym z nc nv iexc psfile
Zn 30 3 4 4 upf
# n l f
1 0 2.0
2 0 2.0
2 1 6.0
3 0 2.0
3 1 6.0
3 2 10.0
4 0 2.0
# lmax
2
# l rc ep ncon nbas qcut
0 1.35 0.0 4 9 8.8
1 1.65 0.0 4 9 9.0
2 1.85 0.0 4 9 9.0
# lloc lpopt rc5 dvloc0
4 5 1.3 0.0
# l nproj debl
0 2 1.0
1 2 1.0
2 2 1.0
# icmod fcfact rcfact
3 2.5 1.65
# epsh1 epsh2 depsh
-12.0 12.0 0.02
# rlmax drl
6.0 0.01
 0
]]>
</input-file>
</provenance>
<pseudo-atom-spec atomic-label="Zn" atomic-number="30" z-pseudo="20"
 flavor="Hamann&apos;s oncvpsp" relativity="scalar" spin-dft="no"
 core-corrections="yes">
<annotation pseudo-energy="-206.511409119" />
<exchange-correlation>
<annotation oncvpsp-xc-code="4" oncvpsp-xc-type="GGA -- Perdew-Burke-Ernzerhof" />
<libxc-info number-of-functionals="2">
<functional name="Perdew, Burke &amp; Ernzerhof (GGA)" type="exchange" id="101" />
<functional name="Perdew, Burke &amp; Ernzerhof (GGA)" type="correlation"
 id="130" />
</libxc-info>
</exchange-correlation>
<valence-configuration total-valence-charge="20">
<shell n="3" l="s" occupation="2" />
<shell n="3" l="p" occupation="6" />
<shell n="3" l="d" occupation="10" />
<shell n="4" l="s" occupation="2" />
</valence-configuration>
</pseudo-atom-spec>
<grid npts="457">
<annotation type="sampled from oncvpsp log grid"
 recipe="r(i:1..N) = r1*exp(a*(i-1)) + r=0; resampled"
 recipe-cont="r1: scale; a: step" scale="0.166666666667E-04"
 step="0.119285708653E-01" delta="0.500000000000E-02" rmax="44.2266713690" />
<grid-data>
  0.000000000000E+00  5.050265833728E-03  1.008750967224E-02  1.513287306711E-02
  2.014900893097E-02  2.527454970839E-02  3.058944708272E-02  3.572056252801E-02
  4.072901687140E-02  4.588904843083E-02  5.108973672188E-02  5.620536399126E-02
  6.183322021382E-02  6.721797924334E-02  7.307167114917E-02  7.849321447608E-02
  8.431700851907E-02  8.949891128336E-02  9.499928023531E-02  1.008376874737E-01
  1.070349079473E-01  1.122658037340E-01  1.177523382768E-01  1.235070048802E-01
  1.295429074081E-01  1.358737901225E-01  1.425140689802E-01  1.477063878056E-01
  1.530878821627E-01  1.586654444216E-01  1.644462180666E-01  1.704376068463E-01
  1.766472842551E-01  1.830832033616E-01  1.897536069942E-01  1.966670382985E-01
  2.038323516784E-01  2.112587241371E-01  2.163593547726E-01  2.215831350343E-01
  2.269330382465E-01  2.324121095219E-01  2.380234674942E-01  2.437703060934E-01
  2.496558963637E-01  2.556835883255E-01  2.618568128821E-01  2.681790837723E-01
  2.746539995709E-01  2.812852457365E-01  2.880765967096E-01  2.950319180606E-01
  3.021551686902E-01  3.094504030831E-01  3.169217736151E-01  3.245735329173E-01
  3.324100362960E-01  3.404357442124E-01  3.486552248206E-01  3.570731565687E-01
  3.656943308609E-01  3.745236547852E-01  3.835661539063E-01  3.928269751262E-01
  4.023113896137E-01  4.120247958045E-01  4.219727224744E-01  4.270363951441E-01
  4.321608318858E-01  4.373467618685E-01  4.425949230109E-01  4.479060620870E-01
  4.532809348321E-01  4.587203060501E-01  4.642249497227E-01  4.697956491193E-01
  4.754331969088E-01  4.811383952717E-01  4.869120560149E-01  4.927550006871E-01
  4.986680606954E-01  5.046520774237E-01  5.107079023528E-01  5.168363971810E-01
  5.230384339472E-01  5.293148951546E-01  5.356666738964E-01  5.420946739832E-01
  5.485998100710E-01  5.551830077918E-01  5.618452038853E-01  5.685873463319E-01
  5.754103944879E-01  5.823153192218E-01  5.893031030524E-01  5.963747402891E-01
  6.035312371725E-01  6.107736120186E-01  6.181028953628E-01  6.255201301072E-01
  6.330263716685E-01  6.406226881285E-01  6.483101603860E-01  6.560898823107E-01
  6.639629608984E-01  6.719305164292E-01  6.799936826263E-01  6.881536068178E-01
  6.964114500997E-01  7.047683875009E-01  7.132256081509E-01  7.217843154487E-01
  7.304457272341E-01  7.392110759609E-01  7.480816088724E-01  7.570585881789E-01
  7.661432912370E-01  7.753370107319E-01  7.846410548606E-01  7.940567475190E-01
  8.035854284892E-01  8.132284536311E-01  8.229871950746E-01  8.328630414155E-01
  8.428573979125E-01  8.529716866875E-01  8.632073469277E-01  8.735658350908E-01
  8.840486251119E-01  8.946572086133E-01  9.053930951166E-01  9.162578122580E-01
  9.272529060051E-01  9.383799408772E-01  9.496405001677E-01  9.610361861697E-01
  9.725686204038E-01  9.842394438486E-01  9.960503171748E-01  1.008002920981E+00
  1.020098956033E+00  1.032340143505E+00  1.044728225227E+00  1.057264963930E+00
  1.069952143497E+00  1.082791569219E+00  1.095785068050E+00  1.108934488866E+00
  1.122241702733E+00  1.135708603165E+00  1.149337106403E+00  1.163129151680E+00
  1.177086701500E+00  1.191211741918E+00  1.205506282821E+00  1.219972358215E+00
  1.234612026514E+00  1.249427370832E+00  1.264420499282E+00  1.279593545273E+00
  1.294948667817E+00  1.310488051830E+00  1.326213908452E+00  1.342128475354E+00
  1.358234017058E+00  1.374532825263E+00  1.391027219166E+00  1.407719545796E+00
  1.424612180345E+00  1.441707526510E+00  1.459008016828E+00  1.476516113030E+00
  1.494234306386E+00  1.512165118063E+00  1.530311099479E+00  1.548674832673E+00
  1.567258930665E+00  1.586066037833E+00  1.605098830287E+00  1.624360016251E+00
  1.643852336446E+00  1.663578564483E+00  1.683541507257E+00  1.703744005344E+00
  1.724188933408E+00  1.744879200609E+00  1.765817751016E+00  1.787007564028E+00
  1.808451654797E+00  1.830153074654E+00  1.852114911550E+00  1.874340290489E+00
  1.896832373975E+00  1.919594362462E+00  1.942629494812E+00  1.965941048750E+00
  1.989532341335E+00  2.013406729431E+00  2.037567610184E+00  2.062018421506E+00
  2.086762642564E+00  2.111803794275E+00  2.137145439806E+00  2.162791185084E+00
  2.188744679305E+00  2.215009615457E+00  2.241589730842E+00  2.268488807612E+00
  2.295710673303E+00  2.323259201383E+00  2.351138311800E+00  2.379351971541E+00
  2.407904195200E+00  2.436799045542E+00  2.466040634089E+00  2.495633121698E+00
  2.525580719158E+00  2.555887687788E+00  2.586558340041E+00  2.617597040122E+00
  2.649008204603E+00  2.680796303059E+00  2.712965858695E+00  2.745521449000E+00
  2.778467706388E+00  2.811809318864E+00  2.845551030691E+00  2.879697643059E+00
  2.914254014776E+00  2.949225062953E+00  2.984615763708E+00  3.020431152873E+00
  3.056676326707E+00  3.093356442628E+00  3.130476719939E+00  3.168042440579E+00
  3.206058949866E+00  3.244531657264E+00  3.283466037151E+00  3.322867629597E+00
  3.362742041152E+00  3.403094945646E+00  3.443932084994E+00  3.485259270014E+00
  3.527082381254E+00  3.569407369829E+00  3.612240258267E+00  3.655587141366E+00
  3.699454187062E+00  3.743847637307E+00  3.788773808955E+00  3.834239094662E+00
  3.880249963798E+00  3.926812963364E+00  3.973934718924E+00  4.021621935551E+00
  4.069881398778E+00  4.118719975563E+00  4.168144615270E+00  4.218162350653E+00
  4.268780298861E+00  4.320005662447E+00  4.371845730397E+00  4.424307879162E+00
  4.477399573712E+00  4.531128368596E+00  4.585501909019E+00  4.640527931927E+00
  4.696214267111E+00  4.752568838316E+00  4.809599664376E+00  4.867314860348E+00
  4.925722638672E+00  4.984831310336E+00  5.044649286061E+00  5.105185077493E+00
  5.166447298423E+00  5.228444666004E+00  5.291186001996E+00  5.354680234020E+00
  5.418936396829E+00  5.483963633590E+00  5.549771197194E+00  5.616368451560E+00
  5.683764872979E+00  5.751970051454E+00  5.820993692072E+00  5.890845616377E+00
  5.961535763773E+00  6.033074192938E+00  6.105471083254E+00  6.178736736253E+00
  6.252881577088E+00  6.327916156013E+00  6.403851149885E+00  6.480697363684E+00
  6.558465732048E+00  6.637167320832E+00  6.716813328682E+00  6.797415088627E+00
  6.878984069690E+00  6.961531878526E+00  7.045070261069E+00  7.129611104201E+00
  7.215166437452E+00  7.301748434701E+00  7.389369415918E+00  7.478041848909E+00
  7.567778351096E+00  7.658591691309E+00  7.750494791605E+00  7.843500729104E+00
  7.937622737853E+00  8.032874210707E+00  8.129268701236E+00  8.226819925651E+00
  8.325541764758E+00  8.425448265935E+00  8.526553645127E+00  8.628872288868E+00
  8.732418756335E+00  8.837207781411E+00  8.943254274788E+00  9.050573326085E+00
  9.159180205998E+00  9.269090368470E+00  9.380319452892E+00  9.492883286326E+00
  9.606797885762E+00  9.722079460391E+00  9.838744413916E+00  9.956809346883E+00
  1.007629105905E+01  1.019720655175E+01  1.031957303038E+01  1.044340790674E+01
  1.056872880162E+01  1.069555354724E+01  1.082390018981E+01  1.095378699208E+01
  1.108523243599E+01  1.121825522522E+01  1.135287428792E+01  1.148910877938E+01
  1.162697808473E+01  1.176650182175E+01  1.190769984361E+01  1.205059224173E+01
  1.219519934863E+01  1.234154174082E+01  1.248964024171E+01  1.263951592461E+01
  1.279119011570E+01  1.294468439709E+01  1.310002060986E+01  1.325722085717E+01
  1.341630750746E+01  1.357730319755E+01  1.374023083592E+01  1.390511360595E+01
  1.407197496922E+01  1.424083866885E+01  1.441172873288E+01  1.458466947768E+01
  1.475968551141E+01  1.493680173754E+01  1.511604335839E+01  1.529743587870E+01
  1.548100510924E+01  1.566677717055E+01  1.585477849660E+01  1.604503583856E+01
  1.623757626862E+01  1.643242718384E+01  1.662961631005E+01  1.682917170577E+01
  1.703112176624E+01  1.723549522743E+01  1.744232117016E+01  1.765162902420E+01
  1.786344857249E+01  1.807780995536E+01  1.829474367483E+01  1.851428059893E+01
  1.873645196611E+01  1.896128938971E+01  1.918882486238E+01  1.941909076073E+01
  1.965211984986E+01  1.988794528806E+01  2.012660063152E+01  2.036811983909E+01
  2.061253727716E+01  2.085988772449E+01  2.111020637718E+01  2.136352885371E+01
  2.161989119995E+01  2.187932989435E+01  2.214188185309E+01  2.240758443532E+01
  2.267647544855E+01  2.294859315393E+01  2.322397627178E+01  2.350266398704E+01
  2.378469595488E+01  2.407011230634E+01  2.435895365402E+01  2.465126109787E+01
  2.494707623104E+01  2.524644114581E+01  2.554939843956E+01  2.585599122084E+01
  2.616626311549E+01  2.648025827287E+01  2.679802137215E+01  2.711959762861E+01
  2.744503280016E+01  2.777437319376E+01  2.810766567208E+01  2.844495766015E+01
  2.878629715207E+01  2.913173271789E+01  2.948131351051E+01  2.983508927264E+01
  3.019311034391E+01  3.055542766803E+01  3.092209280005E+01  3.129315791365E+01
  3.166867580861E+01  3.204869991832E+01  3.243328431734E+01  3.282248372915E+01
  3.321635353390E+01  3.361494977630E+01  3.401832917362E+01  3.442654912370E+01
  3.483966771319E+01  3.525774372574E+01  3.568083665045E+01  3.610900669026E+01
  3.654231477054E+01  3.698082254779E+01  3.742459241836E+01  3.787368752738E+01
  3.832817177771E+01  3.878810983904E+01  3.925356715711E+01  3.972460996300E+01
  4.020130528255E+01  4.068372094594E+01  4.117192559730E+01  4.166598870446E+01
  4.216598056892E+01  4.267197233574E+01  4.318403600377E+01  4.370224443582E+01
  4.422667136905E+01
</grid-data>
</grid>
<valence-charge total-charge="20" is-unscreening-charge="yes"
 rescaled-to-z-pseudo="no">
<radfunc>
<data npts="457">
  2.759881321312E+01  2.760487908634E+01  2.762300933975E+01  2.765324822606E+01
  2.769527279705E+01  2.775049905879E+01  2.782083216645E+01  2.790129791428E+01
  2.799168137106E+01  2.809695992615E+01  2.821546784723E+01  2.834408602355E+01
  2.849926075284E+01  2.866101060463E+01  2.885140318285E+01  2.904109343917E+01
  2.925895899402E+01  2.946490767524E+01  2.969577295849E+01  2.995439677522E+01
  3.024389715455E+01  3.050000805923E+01  3.077993583981E+01  3.108568475551E+01
  3.141938108466E+01  3.178326929145E+01  3.217970461539E+01  3.249986317099E+01
  3.284077453236E+01  3.320352526536E+01  3.358921510479E+01  3.399894816466E+01
  3.443382215885E+01  3.489491532355E+01  3.538327069726E+01  3.589987737712E+01
  3.644564833282E+01  3.702139432243E+01  3.742221912291E+01  3.783683199921E+01
  3.826535563722E+01  3.870786862739E+01  3.916439916819E+01  3.963491819523E+01
  4.011933190564E+01  4.061747364940E+01  4.112909516243E+01  4.165385712024E+01
  4.219131899693E+01  4.274092822117E+01  4.330200863042E+01  4.387374823549E+01
  4.445518632194E+01  4.504519993133E+01  4.564248978515E+01  4.624556573830E+01
  4.685273187607E+01  4.746207140068E+01  4.807143148997E+01  4.867840835190E+01
  4.928033274552E+01  4.987425629014E+01  5.045693894131E+01  5.102483807351E+01
  5.157409967466E+01  5.210055222608E+01  5.259970391161E+01  5.283755086858E+01
  5.306674386959E+01  5.328663270035E+01  5.349654826859E+01  5.369580311756E+01
  5.388369204909E+01  5.405949286369E+01  5.422246722503E+01  5.437186165631E+01
  5.450690867595E+01  5.462682807982E+01  5.473082837735E+01  5.481810838834E+01
  5.488785900700E+01  5.493926513953E+01  5.497150782089E+01  5.498376651558E+01
  5.497522160693E+01  5.494505707812E+01  5.489246338736E+01  5.481664053833E+01
  5.471680134584E+01  5.459217489500E+01  5.444201019082E+01  5.426557999296E+01
  5.406218482877E+01  5.383115717549E+01  5.357186579999E+01  5.328372024221E+01
  5.296617542585E+01  5.261873637677E+01  5.224096302709E+01  5.183247507977E+01
  5.139295690532E+01  5.092216243926E+01  5.041992004580E+01  4.988613730990E+01
  4.932080571698E+01  4.872400517640E+01  4.809590834196E+01  4.743678468026E+01
  4.674700423520E+01  4.602704103487E+01  4.527747608578E+01  4.449899989788E+01
  4.369241448372E+01  4.285863477479E+01  4.199868939932E+01  4.111372076720E+01
  4.020498441036E+01  3.927384753028E+01  3.832178670886E+01  3.735038474445E+01
  3.636132658109E+01  3.535639430718E+01  3.433746120813E+01  3.330648486765E+01
  3.226549932310E+01  3.121660629208E+01  3.016196550037E+01  2.910378415429E+01
  2.804430561484E+01  2.698579734511E+01  2.593053821685E+01  2.488080527626E+01
  2.383886008322E+01  2.280693475070E+01  2.178721782381E+01  2.078184014787E+01
  1.979286088414E+01  1.882225383856E+01  1.787189427273E+01  1.694354636842E+01
  1.603885151497E+01  1.515931758439E+01  1.430630935092E+01  1.348104020003E+01
  1.268456525699E+01  1.191777604672E+01  1.118139677509E+01  1.047598229775E+01
  9.801917815595E+00  9.159420307783E+00  8.548541683434E+00  7.969173602901E+00
  7.421053889733E+00  6.903774425598E+00  6.416790393678E+00  5.959430711917E+00
  5.530909476992E+00  5.130338223517E+00  4.756738791355E+00  4.409056587519E+00
  4.086174028036E+00  3.786923949575E+00  3.510102790195E+00  3.254483353078E+00
  3.018826985788E+00  2.801895139334E+00  2.602460471103E+00  2.419317090654E+00
  2.251288871106E+00  2.097236641879E+00  1.956064269202E+00  1.826723626141E+00
  1.708218492032E+00  1.599607437603E+00  1.500005768148E+00  1.408586609468E+00
  1.324581229124E+00  1.247278689154E+00  1.176024926235E+00  1.110221351861E+00
  1.049323059173E+00  9.928367153337E-01  9.403180213780E-01  8.913683195740E-01
  8.456309191611E-01  8.027890893415E-01  7.625639057390E-01  7.247120106364E-01
  6.890232872464E-01  6.553184583880E-01  6.234466177711E-01  5.932816424368E-01
  5.647144642369E-01  5.376440003861E-01  5.119754042293E-01  4.876209585645E-01
  4.644990195735E-01  4.425337152105E-01  4.216545524128E-01  4.017960543913E-01
  3.828974174567E-01  3.649021866729E-01  3.477579497938E-01  3.314160488896E-01
  3.158313090387E-01  3.009617834477E-01  2.867685143442E-01  2.732153089827E-01
  2.602685300967E-01  2.478969001345E-01  2.360713186150E-01  2.247646919549E-01
  2.139517751178E-01  2.036090244623E-01  1.937144611684E-01  1.842475446469E-01
  1.751890553514E-01  1.665209864311E-01  1.582264436870E-01  1.502895533120E-01
  1.426953769195E-01  1.354298333860E-01  1.284796270569E-01  1.218321818868E-01
  1.154755811067E-01  1.093985120350E-01  1.035902156681E-01  9.804044070957E-02
  9.273940171619E-02  8.767774105913E-02  8.284649441829E-02  7.823705954507E-02
  7.384116804667E-02  6.965085996133E-02  6.565846090927E-02  6.185656161835E-02
  5.823799963689E-02  5.479584305837E-02  5.152337609388E-02  4.841408633663E-02
  4.546165358410E-02  4.265994005868E-02  4.000298192335E-02  3.748498195659E-02
  3.510030327361E-02  3.284346398396E-02  3.070913268035E-02  2.869212465919E-02
  2.678739877758E-02  2.499005485672E-02  2.329533154639E-02  2.169860457013E-02
  2.019538527583E-02  1.878131942173E-02  1.745218613335E-02  1.620389697232E-02
  1.503249506414E-02  1.393415423726E-02  1.290517813240E-02  1.194199924623E-02
  1.104117787972E-02  1.019940096679E-02  9.413480764525E-03  8.680353390897E-03
  7.997077201106E-03  7.360830997679E-03  6.768912073636E-03  6.218734091442E-03
  5.707824803645E-03  5.233823623670E-03  4.794479057512E-03  4.387646008800E-03
  4.011282971107E-03  3.663449122322E-03  3.342301336546E-03  3.046091129211E-03
  2.773161551132E-03  2.521944046870E-03  2.290955292269E-03  2.078794025298E-03
  1.884137883427E-03  1.705740259743E-03  1.542427188908E-03  1.393094272865E-03
  1.256703655034E-03  1.132281050490E-03  1.018912838515E-03  9.157432227264E-04
  8.219714630125E-04  7.368491824984E-04  6.596777519421E-04  5.898057531944E-04
  5.266265227180E-04  4.695757756222E-04  4.181293102331E-04  3.718007928754E-04
  3.301396222783E-04  2.927288728319E-04  2.591833157867E-04  2.291475174054E-04
  2.022940130290E-04  1.783215559907E-04  1.569534403021E-04  1.379358960278E-04
  1.210365562577E-04  1.060429945725E-04  9.276133187248E-05  8.101491140482E-05
  7.064304077431E-05  6.149979966276E-05  5.345291190877E-05  4.638268051895E-05
  4.018098409396E-05  3.475033306082E-05  3.000298401062E-05  2.586011034971E-05
  2.225102738600E-05  1.911246989228E-05  1.638792011723E-05  1.402698415428E-05
  1.198481452923E-05  1.022157683054E-05  8.701958196923E-06  7.394715315967E-06
  6.272260596681E-06  5.310280750266E-06  4.487395524378E-06  3.784836926192E-06
  3.186165847603E-06  2.677012182718E-06  2.244839262627E-06  1.878733160005E-06
  1.569212631801E-06  1.308058294504E-06  1.088159717573E-06  9.033788734791E-07
  7.484284919397E-07  6.187639561380E-07  5.104874683544E-07  4.202633006388E-07
  3.452430323562E-07  2.829997600654E-07  2.314703457948E-07  1.889048469993E-07
  1.538223450202E-07  1.249724585373E-07  1.013018941395E-07  8.192544769120E-08
  6.610092760301E-08  5.320752446570E-08  4.272720084109E-08  3.422872043315E-08
  2.735397751938E-08  2.180632556695E-08  1.734063856476E-08  1.375486996123E-08
  1.088290240410E-08  8.588506936488E-09  6.760253113428E-09  5.307231868450E-09
  4.155471076591E-09  3.244939819970E-09  2.527051548891E-09  1.962588819912E-09
  1.519983248125E-09  1.173893889172E-09  9.040356118978E-10  6.942162690902E-10
  5.315477448577E-10  4.058013657386E-10  3.088828116163E-10  2.344056450317E-10
  1.773459775926E-10  1.337636852263E-10  1.005780372709E-10  7.538767764754E-11
  5.632664248011E-11  4.194956411080E-11  3.114043734263E-11  2.304034558108E-11
  1.699039334966E-11  1.248679425493E-11  9.145643012209E-12  6.675376477682E-12
  4.855318745988E-12  3.519023725276E-12  2.541387452762E-12  1.828712117031E-12
  1.311073015107E-12  9.364757849841E-13  6.664003004619E-13  4.724146469977E-13
  3.336117945903E-13  2.346763893906E-13  1.644323244570E-13  1.147557293283E-13
  7.976461504018E-14  5.521714649565E-14  3.806661424448E-14  2.613362786134E-14
  1.786564101700E-14  1.216127125983E-14  8.242411992093E-15  5.562001251060E-15
  3.736643862445E-15  2.499097059746E-15  1.663841596677E-15  1.102667645185E-15
  7.273729711354E-16  4.775571383774E-16  3.120503435416E-16  2.029225532244E-16
  1.313158608341E-16  8.455900095840E-17  5.417919629578E-17  3.453896140338E-17
  2.190602772567E-17  1.382193522652E-17  8.675569536438E-18  5.416564073166E-18
  3.363712841622E-18  2.077567235404E-18  1.276156910407E-18  7.795378464714E-19
  4.735059582402E-19  2.859824779182E-19  1.717312724461E-19  1.025239220843E-19
  6.084660805220E-20  3.589648188329E-20  2.104944527689E-20  0.000000000000E+00
  0.000000000000E+00  0.000000000000E+00  0.000000000000E+00  0.000000000000E+00
  0.000000000000E+00  0.000000000000E+00  0.000000000000E+00  0.000000000000E+00
  0.000000000000E+00  0.000000000000E+00  0.000000000000E+00  0.000000000000E+00
  0.000000000000E+00  0.000000000000E+00  0.000000000000E+00  0.000000000000E+00
  0.000000000000E+00  0.000000000000E+00  0.000000000000E+00  0.000000000000E+00
  0.000000000000E+00  0.000000000000E+00  0.000000000000E+00  0.000000000000E+00
  0.000000000000E+00
</data>
</radfunc>
</valence-charge>
<pseudocore-charge matching-radius="0.365694330861"
 number-of-continuous-derivatives="4">
<annotation model-charge-form="Teter function with specified parameters" />
<radfunc>
<data npts="290">
  1.310210187071E+02  1.309920229349E+02  1.309053703187E+02  1.307608890111E+02
  1.305601870181E+02  1.302965974396E+02  1.299611695001E+02  1.295777816111E+02
  1.291476023321E+02  1.286471462373E+02  1.280845947156E+02  1.274749980419E+02
  1.267408447747E+02  1.259771056463E+02  1.250801086625E+02  1.241885495370E+02
  1.231671780957E+02  1.222042350241E+02  1.211277394458E+02  1.199254970479E+02
  1.185843242177E+02  1.174018705305E+02  1.161137682462E+02  1.147119708784E+02
  1.131881111675E+02  1.115335560304E+02  1.097394807623E+02  1.082969989038E+02
  1.067672603219E+02  1.051465499251E+02  1.034312379721E+02  1.016178280724E+02
  9.970301225328E+01  9.768373358584E+01  9.555725679886E+01  9.332124720542E+01
  9.097385812746E+01  8.851382681074E+01  8.681091147567E+01  8.505768348330E+01
  8.325433861841E+01  8.140126204119E+01  7.949904471046E+01  7.754850010162E+01
  7.555068107183E+01  7.350689669715E+01  7.141872887648E+01  6.928804846466E+01
  6.711703066358E+01  6.490816936443E+01  6.266429009851E+01  6.038856121741E+01
  5.808450288820E+01  5.575599345566E+01  5.340727269330E+01  5.104294143965E+01
  4.866795709737E+01  4.628762446299E+01  4.390758135607E+01  4.153377853124E+01
  3.917245338786E+01  3.683009704186E+01  3.451341439655E+01  3.222927694588E+01
  2.998466816691E+01  2.778662151132E+01  2.564215118780E+01  2.459217525062E+01
  2.355817614103E+01  2.254099035698E+01  2.154143787472E+01  2.056031931154E+01
  1.959841303589E+01  1.865647223720E+01  1.773522196922E+01  1.683535618174E+01
  1.595753475683E+01  1.510238056692E+01  1.427047657306E+01  1.346236298319E+01
  1.267853449052E+01  1.191943761383E+01  1.118546816162E+01  1.047696884297E+01
  9.794227048454E+00  9.137472824526E+00  8.506877065038E+00  7.902549943263E+00
  7.324539607403E+00  6.772831161840E+00  6.247345955379E+00  5.747941196404E+00
  5.274409913227E+00  4.826481275898E+00  4.403821293428E+00  4.006033897676E+00
  3.632662422108E+00  3.283191480298E+00  2.957049245256E+00  2.653610126822E+00
  2.372197839916E+00  2.112088852068E+00  1.872516193892E+00  1.652673611370E+00
  1.451720033902E+00  1.268784327208E+00  1.102970295334E+00  9.533618913825E-01
  8.190285922029E-01  6.990308882411E-01  5.924258361820E-01  4.982726189976E-01
  4.156380556571E-01  3.436020011571E-01  2.812625767685E-01  2.277411705739E-01
  1.821871495378E-01  1.437822265735E-01  1.117444293812E-01  8.533162224197E-02
  6.384453745084E-02  4.662927962457E-02  3.307927365262E-02  2.263663547873E-02
  1.479295407291E-02  9.089482720585E-03  5.116747924552E-03  2.513594569397E-03
  9.656962969671E-04  2.035700246453E-04  1.429365659588E-07  1.679288159482E-04
  5.558779950948E-04  1.045971222812E-03  1.549632156560E-03  2.004035783273E-03
  2.368390708889E-03  2.620271838160E-03  2.752076463103E-03  2.767671231370E-03
  2.679289991098E-03  2.504733299816E-03  2.264909710830E-03  1.981747150632E-03
  1.676490175971E-03  1.368386098571E-03  1.073750369758E-03  8.053897191403E-04
  5.723508226592E-04  3.799531825972E-04  2.300578228543E-04  1.215186411000E-04
  5.076101544618E-05  1.243261608769E-05  7.426877436598E-08  6.763967463401E-06
  2.569441612063E-05  5.065335280747E-05  7.638583324956E-05  9.882801810572E-05
  1.152121786775E-04  1.240519804446E-04  1.250250471252E-04  1.187758712179E-04
  1.066659764429E-04  9.049967449668E-05  7.225279808267E-05  5.382862747053E-05
  3.686022882586E-05  2.257210846156E-05  1.170708384392E-05  4.517257392476E-06
  8.116199112034E-07  4.769864725461E-08  1.451256854598E-06  4.146619530996E-06
  7.280800537961E-06  1.012707238915E-05  1.215757679132E-05  1.307948063702E-05
  1.283439482961E-05  1.156562402380E-05  9.561696456905E-06  7.187067287596E-06
  4.811633358590E-06  2.749721338274E-06  1.216740735746E-06  3.081692850534E-07
  1.551289186594E-09  0.000000000000E+00  0.000000000000E+00  0.000000000000E+00
  0.000000000000E+00  0.000000000000E+00  0.000000000000E+00  0.000000000000E+00
  0.000000000000E+00  0.000000000000E+00  0.000000000000E+00  0.000000000000E+00
  0.000000000000E+00  0.000000000000E+00  0.000000000000E+00  0.000000000000E+00
  0.000000000000E+00  0.000000000000E+00  0.000000000000E+00  0.000000000000E+00
  0.000000000000E+00  0.000000000000E+00  0.000000000000E+00  0.000000000000E+00
  0.000000000000E+00  0.000000000000E+00  0.000000000000E+00  0.000000000000E+00
  0.000000000000E+00  0.000000000000E+00  0.000000000000E+00  0.000000000000E+00
  0.000000000000E+00  0.000000000000E+00  0.000000000000E+00  0.000000000000E+00
  0.000000000000E+00  0.000000000000E+00  0.000000000000E+00  0.000000000000E+00
  0.000000000000E+00  0.000000000000E+00  0.000000000000E+00  0.000000000000E+00
  0.000000000000E+00  0.000000000000E+00  0.000000000000E+00  0.000000000000E+00
  0.000000000000E+00  0.000000000000E+00  0.000000000000E+00  0.000000000000E+00
  0.000000000000E+00  0.000000000000E+00  0.000000000000E+00  0.000000000000E+00
  0.000000000000E+00  0.000000000000E+00  0.000000000000E+00  0.000000000000E+00
  0.000000000000E+00  0.000000000000E+00  0.000000000000E+00  0.000000000000E+00
  0.000000000000E+00  0.000000000000E+00  0.000000000000E+00  0.000000000000E+00
  0.000000000000E+00  0.000000000000E+00  0.000000000000E+00  0.000000000000E+00
  0.000000000000E+00  0.000000000000E+00  0.000000000000E+00  0.000000000000E+00
  0.000000000000E+00  0.000000000000E+00  0.000000000000E+00  0.000000000000E+00
  0.000000000000E+00  0.000000000000E+00  0.000000000000E+00  0.000000000000E+00
  0.000000000000E+00  0.000000000000E+00  0.000000000000E+00  0.000000000000E+00
  0.000000000000E+00  0.000000000000E+00  0.000000000000E+00  0.000000000000E+00
  0.000000000000E+00  0.000000000000E+00  0.000000000000E+00  0.000000000000E+00
  0.000000000000E+00  0.000000000000E+00  0.000000000000E+00  0.000000000000E+00
  0.000000000000E+00  0.000000000000E+00
</data>
</radfunc>
</pseudocore-charge>
<semilocal-potentials set="scalar_relativistic">
<slps n="3" l="s" rc="1.35823401706" eref="-4.74920131763">
<radfunc>
<data npts="290">
 -3.238620850010E+01 -3.238604028384E+01 -3.238553737494E+01 -3.238469821374E+01
 -3.238353120516E+01 -3.238199618737E+01 -3.238003892422E+01 -3.237779638346E+01
 -3.237527313028E+01 -3.237232813133E+01 -3.236900520300E+01 -3.236538904293E+01
 -3.236101222423E+01 -3.235643298813E+01 -3.235101970687E+01 -3.234560038982E+01
 -3.233934260102E+01 -3.233339264490E+01 -3.232668117774E+01 -3.231910799380E+01
 -3.231055859408E+01 -3.230292864854E+01 -3.229451421080E+01 -3.228522996283E+01
 -3.227498000209E+01 -3.226365621903E+01 -3.225113637348E+01 -3.224087885508E+01
 -3.222980553706E+01 -3.221784422083E+01 -3.220491507342E+01 -3.219092966298E+01
 -3.217578986387E+01 -3.215938661478E+01 -3.214159851270E+01 -3.212229022362E+01
 -3.210131068991E+01 -3.207849111341E+01 -3.206216347863E+01 -3.204487320526E+01
 -3.202655408995E+01 -3.200713472769E+01 -3.198653809328E+01 -3.196468109431E+01
 -3.194147409526E+01 -3.191682041257E+01 -3.189061578095E+01 -3.186274779195E+01
 -3.183309530680E+01 -3.180152784654E+01 -3.176790496394E+01 -3.173207560368E+01
 -3.169387745938E+01 -3.165313633873E+01 -3.160966555218E+01 -3.156326534226E+01
 -3.151372237752E+01 -3.146080933714E+01 -3.140428461754E+01 -3.134389219517E+01
 -3.127936168137E+01 -3.121040860364E+01 -3.113673494240E+01 -3.105802994047E+01
 -3.097397118474E+01 -3.088422593311E+01 -3.078845262839E+01 -3.073819670457E+01
 -3.068630250496E+01 -3.063272556605E+01 -3.057742116164E+01 -3.052034433954E+01
 -3.046144995203E+01 -3.040069267881E+01 -3.033802704218E+01 -3.027340741363E+01
 -3.020678801212E+01 -3.013812289426E+01 -3.006736593714E+01 -2.999447081516E+01
 -2.991939097227E+01 -2.984207959185E+01 -2.976248956624E+01 -2.968057346864E+01
 -2.959628352990E+01 -2.950957162292E+01 -2.942038925730E+01 -2.932868758670E+01
 -2.923441743147E+01 -2.913752931849E+01 -2.903797354042E+01 -2.893570023603E+01
 -2.883065949332E+01 -2.872280147683E+01 -2.861207658054E+01 -2.849843560738E+01
 -2.838182997633E+01 -2.826221195755E+01 -2.813953493579E+01 -2.801375370127E+01
 -2.788482476707E+01 -2.775270671049E+01 -2.761736053518E+01 -2.747875004970E+01
 -2.733684225684E+01 -2.719160774731E+01 -2.704302109047E+01 -2.689106121442E+01
 -2.673571176768E+01 -2.657696145528E+01 -2.641480434277E+01 -2.624924012332E+01
 -2.608027434449E+01 -2.590791859343E+01 -2.573219064098E+01 -2.555311454717E+01
 -2.537072073185E+01 -2.518504601506E+01 -2.499613363242E+01 -2.480403322983E+01
 -2.460880084123E+01 -2.441049885123E+01 -2.420919594254E+01 -2.400496702565E+01
 -2.379789314598E+01 -2.358806136161E+01 -2.337556458289E+01 -2.316050136411E+01
 -2.294297563727E+01 -2.272309637834E+01 -2.250097719815E+01 -2.227673585273E+01
 -2.205049367169E+01 -2.182237490842E+01 -2.159250602191E+01 -2.136101490746E+01
 -2.112803010216E+01 -2.089368000060E+01 -2.065809212678E+01 -2.042139251975E+01
 -2.018370530227E+01 -1.994515251376E+01 -1.970585430021E+01 -1.946592956415E+01
 -1.922549718526E+01 -1.898467792748E+01 -1.874359714789E+01 -1.850238841720E+01
 -1.826119814852E+01 -1.802019131029E+01 -1.777955826994E+01 -1.753952277801E+01
 -1.730035105851E+01 -1.706236192345E+01 -1.682593778031E+01 -1.659153635531E+01