<?xml version="1.0" encoding="UTF-8" ?>
<psml version="1.1" energy_unit="hartree" length_unit="bohr"
 uuid="35054620-be62-11e7-5619-9c65f2111f9e"
 xmlns="http://esl.cecam.org/PSML/ns/1.1">
<provenance creator="ONCVPSP-3.3.0+psml-3.3.0-73 (scalar-relativistic)"
 date="2017-10-31">
<annotation action="semilocal-pseudopotential-generation"
 action-cont="projectors-generation" />
<input-file name="oncvpsp-input">
<![CDATA[# atsym z nc nv iexc psfile
Li 3 0 2 4 upf
# n l f
1 0 2.0
2 0 1.0
# lmax
1
# l rc ep ncon nbas qcut
0 1.2 0.0 4 8 9.8
1 1.0 0.0 4 8 9.2
# lloc lpopt rc5 dvloc0
4 5 0.9 0.0
# l nproj debl
0 2 1.0
1 2 1.0
# icmod fcfact
0 0.25
# epsh1 epsh2 depsh
-12.0 12.0 0.02
# rlmax drl
4.0 0.01
 0
]]>
</input-file>
</provenance>
<pseudo-atom-spec atomic-label="Li" atomic-number="3" z-pseudo="3"
 flavor="Hamann&apos;s oncvpsp" relativity="scalar" spin-dft="no"
 core-corrections="no">
<annotation pseudo-energy="-7.23782577172" />
<exchange-correlation>
<annotation oncvpsp-xc-code="4" oncvpsp-xc-type="GGA -- Perdew-Burke-Ernzerhof" />
<libxc-info number-of-functionals="2">
<functional name="Perdew, Burke &amp; Ernzerhof (GGA)" type="exchange" id="101" />
<functional name="Perdew, Burke &amp; Ernzerhof (GGA)" type="correlation"
 id="130" />
</libxc-info>
</exchange-correlation>
<valence-configuration total-valence-charge="3">
<shell n="1" l="s" occupation="2" />
<shell n="2" l="s" occupation="1" />
</valence-configuration>
</pseudo-atom-spec>
<grid npts="457">
<annotation type="sampled from oncvpsp log grid"
 recipe="r(i:1..N) = r1*exp(a*(i-1)) + r=0; resampled"
 recipe-cont="r1: scale; a: step" scale="0.166666666667E-03"
 step="0.119285708653E-01" delta="0.500000000000E-02" rmax="44.2430787916" />
<grid-data>
  0.000000000000E+00  5.052139405559E-03  1.009125198494E-02  1.513848713291E-02
  2.015648390690E-02  2.528392618201E-02  3.060079530245E-02  3.573381431355E-02
  4.074412671733E-02  4.590607257001E-02  5.110869023733E-02  5.622621532664E-02
  6.185615939828E-02  6.724291609153E-02  7.309877962804E-02  7.852233426508E-02
  8.434828884711E-02  8.953211401853E-02  9.503452352372E-02  1.008750967224E-01
  1.070746162705E-01  1.123074526400E-01  1.177960226038E-01  1.235528241010E-01
  1.295909658570E-01  1.359241972326E-01  1.425669395327E-01  1.477611846294E-01
  1.531446754392E-01  1.587243068888E-01  1.645072251130E-01  1.705008366068E-01
  1.767128177115E-01  1.831511244461E-01  1.898240026970E-01  1.967399987792E-01
  2.039079703814E-01  2.113370979113E-01  2.164396208033E-01  2.216653390080E-01
  2.270172269530E-01  2.324983308805E-01  2.381117705813E-01  2.438607411702E-01
  2.497485149050E-01  2.557784430489E-01  2.619539577779E-01  2.682785741345E-01
  2.747558920284E-01  2.813895982855E-01  2.881834687465E-01  2.951413704159E-01
  3.022672636632E-01  3.095652044771E-01  3.170393467740E-01  3.246939447625E-01
  3.325333553649E-01  3.405620406968E-01  3.487845706074E-01  3.572056252801E-01
  3.658299978969E-01  3.746625973661E-01  3.837084511169E-01  3.929727079607E-01
  4.024606410217E-01  4.121776507385E-01  4.221292679380E-01  4.271948191532E-01
  4.323211569831E-01  4.375090108669E-01  4.427591189973E-01  4.480722284252E-01
  4.534490951663E-01  4.588904843083E-01  4.643971701200E-01  4.699699361615E-01
  4.756095753954E-01  4.813168903001E-01  4.870926929837E-01  4.929378052995E-01
  4.988530589631E-01  5.048392956707E-01  5.108973672188E-01  5.170281356254E-01
  5.232324732529E-01  5.295112629319E-01  5.358653980871E-01  5.422957828641E-01
  5.488033322585E-01  5.553889722456E-01  5.620536399126E-01  5.687982835915E-01
  5.756238629946E-01  5.825313493505E-01  5.895217255428E-01  5.965959862493E-01
  6.037551380843E-01  6.110001997413E-01  6.183322021382E-01  6.257521885638E-01
  6.332612148266E-01  6.408603494045E-01  6.485506735974E-01  6.563332816805E-01
  6.642092810607E-01  6.721797924334E-01  6.802459499426E-01  6.884089013419E-01
  6.966698081580E-01  7.050298458559E-01  7.134902040062E-01  7.220520864543E-01
  7.307167114917E-01  7.394853120296E-01  7.483591357740E-01  7.573394454033E-01
  7.664275187481E-01  7.756246489731E-01  7.849321447608E-01  7.943513304979E-01
  8.038835464639E-01  8.135301490214E-01  8.232925108097E-01  8.331720209394E-01
  8.431700851907E-01  8.532881262130E-01  8.635275837275E-01  8.738899147323E-01
  8.843765937091E-01  8.949891128336E-01  9.057289821876E-01  9.165977299738E-01
  9.275969027335E-01  9.387280655663E-01  9.499928023531E-01  9.613927159813E-01
  9.729294285731E-01  9.846045817160E-01  9.964198366966E-01  1.008376874737E+00
  1.020477397234E+00  1.032723126001E+00  1.045115803513E+00  1.057657193155E+00
  1.070349079473E+00  1.083193268426E+00  1.096191587647E+00  1.109345886699E+00
  1.122658037340E+00  1.136129933788E+00  1.149763492993E+00  1.163560654909E+00
  1.177523382768E+00  1.191653663361E+00  1.205953507321E+00  1.220424949409E+00
  1.235070048802E+00  1.249890889388E+00  1.264889580060E+00  1.280068255021E+00
  1.295429074081E+00  1.310974222970E+00  1.326705913646E+00  1.342626384610E+00
  1.358737901225E+00  1.375042756040E+00  1.391543269112E+00  1.408241788342E+00
  1.425140689802E+00  1.442242378079E+00  1.459549286616E+00  1.477063878056E+00
  1.494788644592E+00  1.512726108328E+00  1.530878821627E+00  1.549249367487E+00
  1.567840359897E+00  1.586654444216E+00  1.605694297546E+00  1.624962629117E+00
  1.644462180666E+00  1.664195726834E+00  1.684166075556E+00  1.704376068463E+00
  1.724828581284E+00  1.745526524260E+00  1.766472842551E+00  1.787670516662E+00
  1.809122562861E+00  1.830832033616E+00  1.852802018019E+00  1.875035642235E+00
  1.897536069942E+00  1.920306502782E+00  1.943350180815E+00  1.966670382985E+00
  1.990270427581E+00  2.014153672711E+00  2.038323516784E+00  2.062783398985E+00
  2.087536799773E+00  2.112587241371E+00  2.137938288267E+00  2.163593547726E+00
  2.189556670299E+00  2.215831350343E+00  2.242421326547E+00  2.269330382465E+00
  2.296562347055E+00  2.324121095219E+00  2.352010548362E+00  2.380234674942E+00
  2.408797491042E+00  2.437703060934E+00  2.466955497665E+00  2.496558963637E+00
  2.526517671201E+00  2.556835883255E+00  2.587517913855E+00  2.618568128821E+00
  2.649990946367E+00  2.681790837723E+00  2.713972327776E+00  2.746539995709E+00
  2.779498475658E+00  2.812852457365E+00  2.846606686854E+00  2.880765967096E+00
  2.915335158701E+00  2.950319180606E+00  2.985723010773E+00  3.021551686902E+00
  3.057810307145E+00  3.094504030831E+00  3.131638079201E+00  3.169217736151E+00
  3.207248348985E+00  3.245735329173E+00  3.284684153123E+00  3.324100362960E+00
  3.363989567316E+00  3.404357442124E+00  3.445209731429E+00  3.486552248206E+00
  3.528390875185E+00  3.570731565687E+00  3.613580344475E+00  3.656943308609E+00
  3.700826628312E+00  3.745236547852E+00  3.790179386426E+00  3.835661539063E+00
  3.881689477532E+00  3.928269751262E+00  3.975408988278E+00  4.023113896137E+00
  4.071391262890E+00  4.120247958045E+00  4.169690933542E+00  4.219727224744E+00
  4.270363951441E+00  4.321608318858E+00  4.373467618685E+00  4.425949230109E+00
  4.479060620870E+00  4.532809348321E+00  4.587203060501E+00  4.642249497227E+00
  4.697956491193E+00  4.754331969088E+00  4.811383952717E+00  4.869120560149E+00
  4.927550006871E+00  4.986680606954E+00  5.046520774237E+00  5.107079023528E+00
  5.168363971810E+00  5.230384339472E+00  5.293148951546E+00  5.356666738964E+00
  5.420946739832E+00  5.485998100710E+00  5.551830077918E+00  5.618452038853E+00
  5.685873463319E+00  5.754103944879E+00  5.823153192218E+00  5.893031030524E+00
  5.963747402891E+00  6.035312371725E+00  6.107736120186E+00  6.181028953628E+00
  6.255201301072E+00  6.330263716685E+00  6.406226881285E+00  6.483101603860E+00
  6.560898823107E+00  6.639629608984E+00  6.719305164292E+00  6.799936826263E+00
  6.881536068178E+00  6.964114500997E+00  7.047683875009E+00  7.132256081509E+00
  7.217843154487E+00  7.304457272341E+00  7.392110759609E+00  7.480816088724E+00
  7.570585881789E+00  7.661432912370E+00  7.753370107319E+00  7.846410548606E+00
  7.940567475190E+00  8.035854284892E+00  8.132284536311E+00  8.229871950746E+00
  8.328630414155E+00  8.428573979125E+00  8.529716866875E+00  8.632073469277E+00
  8.735658350908E+00  8.840486251119E+00  8.946572086133E+00  9.053930951166E+00
  9.162578122580E+00  9.272529060051E+00  9.383799408772E+00  9.496405001677E+00
  9.610361861697E+00  9.725686204038E+00  9.842394438486E+00  9.960503171748E+00
  1.008002920981E+01  1.020098956033E+01  1.032340143505E+01  1.044728225227E+01
  1.057264963930E+01  1.069952143497E+01  1.082791569219E+01  1.095785068050E+01
  1.108934488866E+01  1.122241702733E+01  1.135708603165E+01  1.149337106403E+01
  1.163129151680E+01  1.177086701500E+01  1.191211741918E+01  1.205506282821E+01
  1.219972358215E+01  1.234612026514E+01  1.249427370832E+01  1.264420499282E+01
  1.279593545273E+01  1.294948667817E+01  1.310488051830E+01  1.326213908452E+01
  1.342128475354E+01  1.358234017058E+01  1.374532825263E+01  1.391027219166E+01
  1.407719545796E+01  1.424612180345E+01  1.441707526510E+01  1.459008016828E+01
  1.476516113030E+01  1.494234306386E+01  1.512165118063E+01  1.530311099479E+01
  1.548674832673E+01  1.567258930665E+01  1.586066037833E+01  1.605098830287E+01
  1.624360016251E+01  1.643852336446E+01  1.663578564483E+01  1.683541507257E+01
  1.703744005344E+01  1.724188933408E+01  1.744879200609E+01  1.765817751016E+01
  1.787007564028E+01  1.808451654797E+01  1.830153074654E+01  1.852114911550E+01
  1.874340290489E+01  1.896832373975E+01  1.919594362462E+01  1.942629494812E+01
  1.965941048750E+01  1.989532341335E+01  2.013406729431E+01  2.037567610184E+01
  2.062018421506E+01  2.086762642564E+01  2.111803794275E+01  2.137145439806E+01
  2.162791185084E+01  2.188744679305E+01  2.215009615457E+01  2.241589730842E+01
  2.268488807612E+01  2.295710673303E+01  2.323259201383E+01  2.351138311800E+01
  2.379351971541E+01  2.407904195200E+01  2.436799045542E+01  2.466040634089E+01
  2.495633121698E+01  2.525580719158E+01  2.555887687788E+01  2.586558340041E+01
  2.617597040122E+01  2.649008204603E+01  2.680796303059E+01  2.712965858695E+01
  2.745521449000E+01  2.778467706388E+01  2.811809318864E+01  2.845551030691E+01
  2.879697643059E+01  2.914254014776E+01  2.949225062953E+01  2.984615763708E+01
  3.020431152873E+01  3.056676326707E+01  3.093356442628E+01  3.130476719939E+01
  3.168042440579E+01  3.206058949866E+01  3.244531657264E+01  3.283466037151E+01
  3.322867629597E+01  3.362742041152E+01  3.403094945646E+01  3.443932084994E+01
  3.485259270014E+01  3.527082381254E+01  3.569407369829E+01  3.612240258267E+01
  3.655587141366E+01  3.699454187062E+01  3.743847637307E+01  3.788773808955E+01
  3.834239094662E+01  3.880249963798E+01  3.926812963364E+01  3.973934718924E+01
  4.021621935551E+01  4.069881398778E+01  4.118719975563E+01  4.168144615270E+01
  4.218162350653E+01  4.268780298861E+01  4.320005662447E+01  4.371845730397E+01
  4.424307879162E+01
</grid-data>
</grid>
<valence-charge total-charge="3" is-unscreening-charge="yes"
 rescaled-to-z-pseudo="no">
<radfunc>
<data npts="457">
  4.371083019778E+01  4.370475007790E+01  4.368657684905E+01  4.365626795606E+01
  4.361414981914E+01  4.355880720600E+01  4.348833672465E+01  4.340772853228E+01
  4.331720360858E+01  4.321178468830E+01  4.309314973929E+01  4.296443019989E+01
  4.280918275612E+01  4.264741352221E+01  4.245706995334E+01  4.226750348031E+01
  4.204986925515E+01  4.184422366523E+01  4.161379161805E+01  4.135576495651E+01
  4.106706529034E+01  4.081177186575E+01  4.053284645006E+01  4.022831190213E+01
  3.989606951519E+01  3.953390118638E+01  3.913947428019E+01  3.882102088862E+01
  3.848198764390E+01  3.812128411169E+01  3.773779869538E+01  3.733040459760E+01
  3.689796702221E+01  3.643935175692E+01  3.595343528009E+01  3.543911653556E+01
  3.489533051550E+01  3.432106378190E+01  3.392081581949E+01  3.350634063837E+01
  3.307739986273E+01  3.263377849899E+01  3.217528816157E+01  3.170177048901E+01
  3.121310074379E+01  3.070919158593E+01  3.018999700664E+01  2.965551640378E+01
  2.910579877598E+01  2.854094700703E+01  2.796112220591E+01  2.736654806164E+01
  2.675751516519E+01  2.613438524337E+01  2.549759524208E+01  2.484766118867E+01
  2.418518175528E+01  2.351084143750E+01  2.282541325564E+01  2.212976087920E+01
  2.142484006990E+01  2.071169933443E+01  1.999147967574E+01  1.926541333153E+01
  1.853482139148E+01  1.780111018997E+01  1.706576638084E+01  1.669796726364E+01
  1.633035061378E+01  1.596312179727E+01  1.559648974989E+01  1.523066665142E+01
  1.486586757634E+01  1.450231012096E+01  1.414021400751E+01  1.377980066562E+01
  1.342129279194E+01  1.306491388858E+01  1.271088778160E+01  1.235943812057E+01
  1.201078786062E+01  1.166515872861E+01  1.132277067510E+01  1.098384131406E+01
  1.064858535252E+01  1.031721401234E+01  9.989934446733E+00  9.666949154022E+00
  9.348455391587E+00  9.034644592846E+00  8.725701790381E+00  8.421805048380E+00
  8.123124907670E+00  7.829823846662E+00  7.542055761600E+00  7.259965469484E+00
  6.983688237043E+00  6.713349339088E+00  6.449063649479E+00  6.190935267849E+00
  5.939057185063E+00  5.693510990219E+00  5.454366621790E+00  5.221682165241E+00
  4.995503699195E+00  4.775865191899E+00  4.562788449410E+00  4.356283116561E+00
  4.156346731374E+00  3.962964833196E+00  3.776111124417E+00  3.595747685195E+00
  3.421825240210E+00  3.254283476011E+00  3.093051407144E+00  2.938047788800E+00
  2.789181573381E+00  2.646352407992E+00  2.509451169541E+00  2.378360533856E+00
  2.252955574940E+00  2.133104390293E+00  2.018668748072E+00  1.909504751707E+00
  1.805463517570E+00  1.706391861249E+00  1.612132988023E+00  1.522527183219E+00
  1.437412498263E+00  1.356625428403E+00  1.280001578295E+00  1.207376311890E+00
  1.138585383292E+00  1.073465545567E+00  1.011855134728E+00  9.535946264274E-01
  8.985271631105E-01  8.464990496593E-01  7.973602157131E-01  7.509646430348E-01
  7.071707563834E-01  6.658417764119E-01  6.268460331069E-01  5.900572382428E-01
  5.553547152333E-01  5.226235846592E-01  4.917549036338E-01  4.626457570850E-01
  4.351992989971E-01  4.093247417160E-01  3.849372916078E-01  3.619580297129E-01
  3.403137365861E-01  3.199366612850E-01  3.007642354710E-01  2.827385447334E-01
  2.658050300036E-01  2.499108388083E-01  2.350048262861E-01  2.210375275474E-01
  2.079611452058E-01  1.957295334315E-01  1.842981802493E-01  1.736241880450E-01
  1.636662524644E-01  1.543846398902E-01  1.457411636943E-01  1.376991594770E-01
  1.302234595240E-01  1.232803667239E-01  1.168376282092E-01  1.108644089854E-01
  1.053312658132E-01  1.002101215810E-01  9.547424034497E-02  9.109820310644E-02
  8.705788422067E-02  8.333042806736E-02  7.989422524953E-02  7.672888711149E-02
  7.381521679486E-02  7.113517443013E-02  6.867183350235E-02  6.640932513849E-02
  6.433276738096E-02  6.242817790759E-02  6.068237162299E-02  5.908284923775E-02
  5.761768858885E-02  5.627545479581E-02  5.504514513120E-02  5.391617751416E-02
  5.287841933977E-02  5.192224151938E-02  5.103857720521E-02  5.021896766178E-02
  4.945558595931E-02  4.874123756562E-02  4.806934227097E-02  4.743390374709E-02
  4.682947256432E-02  4.625110701600E-02  4.569433452690E-02  4.515511516117E-02
  4.462980788435E-02  4.411513971550E-02  4.360817763151E-02  4.310630296667E-02
  4.260718801926E-02  4.210877459037E-02  4.160925421302E-02  4.110704986633E-02
  4.060079900467E-02  4.008933776191E-02  3.957168621497E-02  3.904703461054E-02
  3.851473047364E-02  3.797426652824E-02  3.742526936896E-02  3.686748882994E-02
  3.630078800204E-02  3.572513385436E-02  3.514058841940E-02  3.454730050449E-02
  3.394549789492E-02  3.333548001663E-02  3.271761102865E-02  3.209231331780E-02
  3.146006136989E-02  3.082137599383E-02  3.017681887653E-02  2.952698744842E-02
  2.887251004047E-02  2.821404131547E-02  2.755225795708E-02  2.688785460160E-02
  2.622153999831E-02  2.555403338493E-02  2.488606106585E-02  2.421835318134E-02
  2.355164065638E-02  2.288665231873E-02  2.222411217611E-02  2.156473684306E-02
  2.090923310850E-02  2.025829563591E-02  1.961260478823E-02  1.897282457099E-02
  1.833960068748E-02  1.771355870112E-02  1.709530230115E-02  1.648541166904E-02
  1.588444194430E-02  1.529292178972E-02  1.471135205764E-02  1.414020455997E-02
  1.357992094615E-02  1.303091169440E-02  1.249355522240E-02  1.196819712433E-02
  1.145514954143E-02  1.095469067332E-02  1.046706443680E-02  9.992480278143E-03
  9.531113143693E-03  9.083103612158E-03  8.648558190165E-03  8.227549770798E-03
  7.820118252702E-03  7.426271315278E-03  7.045985343385E-03  6.679206493044E-03
  6.325851887811E-03  5.985810933952E-03  5.658946741228E-03  5.345097636035E-03
  5.044078747487E-03  4.755683659802E-03  4.479686107265E-03  4.215841700416E-03
  3.963889667819E-03  3.723554599159E-03  3.494548176190E-03  3.276570878997E-03
  3.069313656124E-03  2.872459548236E-03  2.685685256214E-03  2.508662645784E-03
  2.341060182037E-03  2.182544288382E-03  2.032780625665E-03  1.891435288299E-03
  1.758175915323E-03  1.632672715264E-03  1.514599404615E-03  1.403634060552E-03
  1.299459889237E-03  1.201765911721E-03  1.110247570032E-03  1.024607256481E-03
  9.445547696466E-04  8.698077008057E-04  8.000917548128E-04  7.351410096313E-04
  6.746981187124E-04  6.185144608011E-04  5.663502409818E-04  5.179745478232E-04
  4.731653703533E-04  4.317095788728E-04  3.934028735321E-04  3.580497041869E-04
  3.254631648782E-04  2.954648660413E-04  2.678847872925E-04  2.425611133814E-04
  2.193400556510E-04  1.980756611025E-04  1.786296109364E-04  1.608710102326E-04
  1.446761702416E-04  1.299283845918E-04  1.165177005740E-04  1.043406865402E-04
  9.330019635283E-05  8.330513174071E-05  7.427020334961E-05  6.611569122984E-05
  5.876720546266E-05  5.215544759992E-05  4.621597356844E-05  4.088895867204E-05
  3.611896530676E-05  3.185471398687E-05  2.804885825927E-05  2.465776406039E-05
  2.164129404243E-05  1.896259736383E-05  1.658790540210E-05  1.448633380681E-05
  1.262969126513E-05  1.099229530491E-05  9.550795409185E-06  8.284003663941E-06
  7.172733107929E-06  6.199643899992E-06  5.349097367361E-06  4.607017947688E-06
  3.960762989344E-06  3.399000329164E-06  2.911593524846E-06  2.489494581077E-06
  2.124643974335E-06  1.809877751433E-06  1.538841451358E-06  1.305910578647E-06
  1.106117339576E-06  9.350833394536E-07  7.889579302149E-07  6.643618920840E-07
  5.583361308963E-07  4.682950735992E-07  3.919844480375E-07  3.274431391156E-07
  2.729688214622E-07  2.270870784876E-07  1.885237289114E-07  1.561800941599E-07
  1.291109532034E-07  1.065049451939E-07  8.766719441657E-08  7.200394640672E-08
  5.900901840686E-08  4.825188150122E-08  3.936720562838E-08  3.204571212770E-08
  2.602619143004E-08  2.108855588711E-08  1.704780949264E-08  1.374882734401E-08
  1.106184810260E-08  8.878592421339E-09  7.108929320699E-09  5.678020815712E-09
  4.523882744182E-09  3.595306741570E-09  2.850094678237E-09  2.253562650711E-09
  1.777276833763E-09  1.397988189486E-09  1.096737229442E-09  8.581037725645E-10
  6.695799709316E-10  5.210478230418E-10  4.043449938091E-10  3.129050448531E-10
  2.414601786185E-10  1.857963445422E-10  1.425520720019E-10  1.090537082801E-10
  8.318087341070E-11  6.325691872037E-11  4.796001140628E-11  3.625118102160E-11
  2.731627096145E-11  2.051925297678E-11  1.536479789250E-11  1.146836214112E-11
  8.532357211840E-12  6.327226229522E-12  4.676466113030E-12  3.444811634619E-12
  2.528944858049E-12  1.850214741092E-12  1.348951328331E-12  9.800405066801E-13
  7.094917912365E-13  5.117856321945E-13  3.678304617298E-13  2.633949631728E-13
  1.879093753422E-13  1.335523195834E-13  9.455771579429E-14  6.669071265706E-14
  4.685291755395E-14  3.278616428988E-14  2.285108415105E-14  1.586224001664E-14
  1.096586142815E-14  7.549536293051E-15  5.175777296444E-15  3.533351886462E-15
  2.401774125147E-15  1.625507867617E-15  1.095304922985E-15  7.347628341179E-16
  4.906845052929E-16  3.261948424365E-16  2.158478308170E-16  1.421641577363E-16
  9.319230447469E-17  6.079850020127E-17  3.947331621246E-17  2.550275347560E-17
  1.639522947613E-17  1.048743251694E-17  6.674462049321E-18  4.226028136958E-18
  2.661893778969E-18  1.667877453962E-18  1.039501562036E-18  6.443856781973E-19
  3.972814286597E-19  0.000000000000E+00  0.000000000000E+00  0.000000000000E+00
  0.000000000000E+00
</data>
</radfunc>
</valence-charge>
<semilocal-potentials set="scalar_relativistic">
<slps n="1" l="s" rc="1.20595350732" eref="-1.90562301682">
<radfunc>
<data npts="256">
 -1.331171673072E+01 -1.331105473487E+01 -1.330907588037E+01 -1.330577479924E+01
 -1.330118584414E+01 -1.329515303540E+01 -1.328746619559E+01 -1.327866663625E+01
 -1.326877560212E+01 -1.325724511510E+01 -1.324425324638E+01 -1.323013764253E+01
 -1.321308553846E+01 -1.319528444273E+01 -1.317429521699E+01 -1.315334330952E+01
 -1.312922792798E+01 -1.310637903123E+01 -1.308070250825E+01 -1.305185596315E+01
 -1.301945706961E+01 -1.299069515865E+01 -1.295914674334E+01 -1.292454905766E+01
 -1.288661556188E+01 -1.284503389618E+01 -1.279946366512E+01 -1.276244663607E+01
 -1.272280962066E+01 -1.268037301723E+01 -1.263494543755E+01 -1.258632298232E+01
 -1.253428848344E+01 -1.247861071594E+01 -1.241904358447E+01 -1.235532529115E+01
 -1.228717749480E+01 -1.221430447486E+01 -1.216294309060E+01 -1.210924481653E+01
 -1.205310814833E+01 -1.199442765552E+01 -1.193309390687E+01 -1.186899340924E+01
 -1.180200856300E+01 -1.173201763759E+01 -1.165889477098E+01 -1.158250999762E+01
 -1.150272930986E+01 -1.141941475823E+01 -1.133242459695E+01 -1.124161348135E+01
 -1.114683272470E+01 -1.104793062273E+01 -1.094475285471E+01 -1.083714297085E+01
 -1.072494297637E+01 -1.060799402362E+01 -1.048613722387E+01 -1.035921459167E+01
 -1.022707013459E+01 -1.008955110227E+01 -9.946509408660E+00 -9.797803241651E+00
 -9.643298874562E+00 -9.482872693610E+00 -9.316413455445E+00 -9.230890669265E+00
 -9.143824788562E+00 -9.055206543217E+00 -8.965027952168E+00 -8.873282424693E+00
 -8.779964866228E+00 -8.685071788915E+00 -8.588601426973E+00 -8.490553857049E+00
 -8.390931123757E+00 -8.289737370535E+00 -8.186978976112E+00 -8.082664696777E+00
 -7.976805814806E+00 -7.869416293350E+00 -7.760512938210E+00 -7.650115566932E+00
 -7.538247185770E+00 -7.424934175084E+00 -7.310206483847E+00 -7.194097833965E+00
 -7.076645935222E+00 -6.957892711678E+00 -6.837884540376E+00 -6.716672503287E+00
 -6.594312653324E+00 -6.470866295282E+00 -6.346400282379E+00 -6.220987328992E+00
 -6.094706339875E+00 -5.967642755900E+00 -5.839888915915E+00 -5.711544433845E+00
 -5.582716589546E+00 -5.453520731190E+00 -5.324080686138E+00 -5.194529176284E+00
 -5.065008232742E+00 -4.935669603575E+00 -4.806675146873E+00 -4.678197200052E+00
 -4.550418914669E+00 -4.423534544327E+00 -4.297749671495E+00 -4.173281357133E+00
 -4.050358195086E+00 -3.929220251159E+00 -3.810118864704E+00 -3.693316288503E+00
 -3.579085140631E+00 -3.467707640068E+00 -3.359474595997E+00 -3.254684119199E+00
 -3.153640022809E+00 -3.056649879081E+00 -2.964022698881E+00 -2.876066201706E+00
 -2.793083646169E+00 -2.715370194535E+00 -2.643208790194E+00 -2.576865534237E+00
 -2.516584556804E+00 -2.462582390796E+00 -2.415041870116E+00 -2.374105591796E+00
 -2.339869001292E+00 -2.312373182553E+00 -2.291597458928E+00 -2.277451937383E+00
 -2.269770155972E+00 -2.268302022349E+00 -2.272707258636E+00 -2.282549594204E+00
 -2.297291972095E+00 -2.316293056046E+00 -2.338805342688E+00 -2.363975196842E+00
 -2.390845136516E+00 -2.418358697637E+00 -2.445368206397E+00 -2.470645778864E+00
 -2.492897852622E+00 -2.510783533308E+00 -2.522937009589E+00 -2.527994253744E+00
 -2.524624182123E+00 -2.511563085229E+00 -2.487669333208E+00 -2.458168952869E+00
 -2.429021598419E+00 -2.400218449056E+00 -2.371757058323E+00 -2.343633137501E+00
 -2.315842710715E+00 -2.288381819876E+00 -2.261246556987E+00 -2.234433061106E+00
 -2.207937517992E+00 -2.181756159949E+00 -2.155885265744E+00 -2.130321160623E+00
 -2.105060216421E+00 -2.080098851724E+00 -2.055433532027E+00 -2.031060769767E+00
 -2.006977124028E+00 -1.983179199646E+00 -1.959663645317E+00 -1.936427150252E+00
 -1.913466438872E+00 -1.890778263177E+00 -1.868359392703E+00 -1.846206602644E+00
 -1.824316661703E+00 -1.802686322555E+00 -1.781312319244E+00 -1.760191376854E+00
 -1.739320238391E+00 -1.718695710829E+00 -1.698314725458E+00 -1.678174397525E+00
 -1.658272060459E+00 -1.638605249008E+00 -1.619171621621E+00 -1.599968843717E+00
 -1.580994480102E+00 -1.562245942561E+00 -1.543720505824E+00 -1.525415368779E+00
 -1.507327724188E+00 -1.489454810608E+00 -1.471793938577E+00 -1.454342495898E+00
 -1.437097941013E+00 -1.420057792029E+00 -1.403219615966E+00 -1.386581020154E+00
 -1.370139646131E+00 -1.353893165667E+00 -1.337839278356E+00 -1.321975710230E+00
 -1.306300213015E+00 -1.290810563728E+00 -1.275504564467E+00 -1.260380042264E+00
 -1.245434848977E+00 -1.230666861158E+00 -1.216073979911E+00 -1.201654130731E+00
 -1.187405263308E+00 -1.173325351330E+00 -1.159412392260E+00 -1.145664407107E+00
 -1.132079440187E+00 -1.118655558881E+00 -1.105390853383E+00 -1.092283436455E+00
 -1.079331443173E+00 -1.066533030678E+00 -1.053886377923E+00 -1.041389685426E+00
 -1.029041175019E+00 -1.016839089602E+00 -1.004781692900E+00 -9.928672692178E-01
 -9.810941232002E-01 -9.694605795929E-01 -9.579649830069E-01 -9.466056976841E-01
 -9.353811072661E-01 -9.242896145657E-01 -9.133296413395E-01 -9.024996280654E-01
 -8.917980337198E-01 -8.812233355599E-01 -8.707740289068E-01 -8.604486269316E-01
 -8.502456604445E-01 -8.401636776851E-01 -8.302012441160E-01 -8.203569422184E-01
 -8.106293712900E-01 -8.010171472450E-01 -7.915189024161E-01 -7.821332853591E-01
 -7.728589606589E-01 -7.636946087385E-01 -7.546389256692E-01 -7.456906229833E-01
</data>
</radfunc>
</slps>
<slps n="2" l="p" rc="1.00837687474" eref="-0.139057658459E-08">
<radfunc>
<data npts="256">
 -7.984242837818E+00 -7.985146713004E+00 -7.987843990665E+00 -7.992328365896E+00
 -7.998530811098E+00 -8.006629195982E+00 -8.016856648078E+00 -8.028439320029E+00
 -8.041299509219E+00 -8.056079356944E+00 -8.072460133664E+00 -8.089932246365E+00
 -8.110589396984E+00 -8.131632098058E+00 -8.155763663846E+00 -8.179124391163E+00
 -8.205120141323E+00 -8.228878235681E+00 -8.254574250187E+00 -8.282192350621E+00
 -8.311655466038E+00 -8.336451744218E+00 -8.362202713392E+00 -8.388729976590E+00
 -8.415794076970E+00 -8.443083516630E+00 -8.470202807308E+00 -8.490138540546E+00
 -8.509456396561E+00 -8.527870954408E+00 -8.545055945356E+00 -8.560641496161E+00
 -8.574211762658E+00 -8.585303140910E+00 -8.593403280465E+00 -8.597951163866E+00
 -8.598338557274E+00 -8.593913176096E+00 -8.587949266903E+00 -8.579327018172E+00
 -8.567828747226E+00 -8.553233527798E+00 -8.535319101801E+00 -8.513864113298E+00
 -8.488650681311E+00 -8.459467323215E+00 -8.426112233593E+00 -8.388396914677E+00
 -8.346150143432E+00 -8.299222246601E+00 -8.247489638566E+00 -8.190859557448E+00
 -8.129274912117E+00 -8.062719127297E+00 -7.991220845430E+00 -7.914858313137E+00
 -7.833763247947E+00 -7.748123948278E+00 -7.658187378677E+00 -7.564259934885E+00
 -7.466706572719E+00 -7.365947974448E+00 -7.262455430645E+00 -7.156743139487E+00
 -7.049357674268E+00 -6.940864449273E+00 -6.831831129254E+00 -6.777285190461E+00
 -6.722808083033E+00 -6.668462255977E+00 -6.614306180076E+00 -6.560393549503E+00
 -6.506772470436E+00 -6.453484646234E+00 -6.400564569904E+00 -6.348038736004E+00
 -6.295924885419E+00 -6.244231297650E+00 -6.192956146539E+00 -6.142086936339E+00
 -6.091600036035E+00 -6.041460330479E+00 -5.991621007479E+00 -5.942023500051E+00
 -5.892597603017E+00 -5.843261782457E+00 -5.793923695568E+00 -5.744480936923E+00
 -5.694822024997E+00 -5.644827640135E+00 -5.594372121651E+00 -5.543325227732E+00
 -5.491554156855E+00 -5.438925823890E+00 -5.385309377633E+00 -5.330578939422E+00
 -5.274616534677E+00 -5.217315180782E+00 -5.158582085806E+00 -5.098341903271E+00
 -5.036539978763E+00 -4.973145514814E+00 -4.908154571583E+00 -4.841592812658E+00
 -4.773517898304E+00 -4.704021423136E+00 -4.633230292029E+00 -4.561307427608E+00
 -4.488451705566E+00 -4.414897020791E+00 -4.340910398542E+00 -4.266789081030E+00
 -4.192856541250E+00 -4.119457402886E+00 -4.046951277656E+00 -3.975705569278E+00
 -3.906087335777E+00 -3.838454348201E+00 -3.773145532615E+00 -3.710471031880E+00
 -3.650702171921E+00 -3.594061661711E+00 -3.540714394074E+00 -3.490759242868E+00
 -3.444222268068E+00 -3.401051740931E+00 -3.361115384123E+00 -3.324200184361E+00
 -3.290015076390E+00 -3.258196716206E+00 -3.228318459007E+00 -3.199902534720E+00
 -3.172435273994E+00 -3.145385084066E+00 -3.118222712204E+00 -3.090443171084E+00
 -3.061588542917E+00 -3.031270735944E+00 -2.999193147812E+00 -2.965170105581E+00
 -2.930363176251E+00 -2.896103731996E+00 -2.862341835338E+00 -2.829063185735E+00
 -2.796249994470E+00 -2.763880966373E+00 -2.731931388554E+00 -2.700373351981E+00
 -2.669176129462E+00 -2.638306726972E+00 -2.607730613626E+00 -2.577412619195E+00
 -2.547317968896E+00 -2.517412090186E+00 -2.487676062093E+00 -2.458168952869E+00
 -2.429021598419E+00 -2.400218449056E+00 -2.371757058323E+00 -2.343633137501E+00
 -2.315842710715E+00 -2.288381819876E+00 -2.261246556987E+00 -2.234433061106E+00
 -2.207937517992E+00 -2.181756159949E+00 -2.155885265744E+00 -2.130321160623E+00
 -2.105060216421E+00 -2.080098851724E+00 -2.055433532027E+00 -2.031060769767E+00
 -2.006977124028E+00 -1.983179199646E+00 -1.959663645317E+00 -1.936427150252E+00
 -1.913466438872E+00 -1.890778263177E+00 -1.868359392703E+00 -1.846206602644E+00
 -1.824316661703E+00 -1.802686322555E+00 -1.781312319244E+00 -1.760191376854E+00
 -1.739320238391E+00 -1.718695710829E+00 -1.698314725458E+00 -1.678174397525E+00
 -1.658272060459E+00 -1.638605249008E+00 -1.619171621621E+00 -1.599968843717E+00
 -1.580994480102E+00 -1.562245942561E+00 -1.543720505824E+00 -1.525415368779E+00
 -1.507327724188E+00 -1.489454810608E+00 -1.471793938577E+00 -1.454342495898E+00
 -1.437097941013E+00 -1.420057792029E+00 -1.403219615966E+00 -1.386581020154E+00