<?xml version="1.0" encoding="UTF-8" ?>
<psml version="1.1" energy_unit="hartree" length_unit="bohr"
 uuid="0c66e0f0-be41-11e7-6b94-5bfdff26fa38"
 xmlns="http://esl.cecam.org/PSML/ns/1.1">
<provenance creator="ONCVPSP-3.3.0+psml-3.3.0-73 (scalar-relativistic)"
 date="2017-10-31">
<annotation action="semilocal-pseudopotential-generation"
 action-cont="projectors-generation" />
<input-file name="oncvpsp-input">
<![CDATA[# atsym z nc nv iexc psfile
Li 3 0 2 4 upf
# n l f
1 0 2.0
2 0 1.0
# lmax
1
# l rc ep ncon nbas qcut
0 1.4 0.0 4 8 8.6
1 1.1 0.0 4 8 9.0
# lloc lpopt rc5 dvloc0
4 5 1.1 0.0
# l nproj debl
0 2 1.0
1 2 1.0
# icmod fcfact
0 0.25
# epsh1 epsh2 depsh
-12.0 12.0 0.02
# rlmax drl
4.0 0.01
 0
]]>
</input-file>
</provenance>
<pseudo-atom-spec atomic-label="Li" atomic-number="3" z-pseudo="3"
 flavor="Hamann&apos;s oncvpsp" relativity="scalar" spin-dft="no"
 core-corrections="no">
<annotation pseudo-energy="-7.13438529840" />
<exchange-correlation>
<annotation oncvpsp-xc-code="4" oncvpsp-xc-type="GGA -- Perdew-Burke-Ernzerhof" />
<libxc-info number-of-functionals="2">
<functional name="Perdew, Burke &amp; Ernzerhof (GGA)" type="exchange" id="101" />
<functional name="Perdew, Burke &amp; Ernzerhof (GGA)" type="correlation"
 id="130" />
</libxc-info>
</exchange-correlation>
<valence-configuration total-valence-charge="3">
<shell n="1" l="s" occupation="2" />
<shell n="2" l="s" occupation="1" />
</valence-configuration>
</pseudo-atom-spec>
<grid npts="457">
<annotation type="sampled from oncvpsp log grid"
 recipe="r(i:1..N) = r1*exp(a*(i-1)) + r=0; resampled"
 recipe-cont="r1: scale; a: step" scale="0.166666666667E-03"
 step="0.119285708653E-01" delta="0.500000000000E-02" rmax="44.2430787916" />
<grid-data>
  0.000000000000E+00  5.052139405559E-03  1.009125198494E-02  1.513848713291E-02
  2.015648390690E-02  2.528392618201E-02  3.060079530245E-02  3.573381431355E-02
  4.074412671733E-02  4.590607257001E-02  5.110869023733E-02  5.622621532664E-02
  6.185615939828E-02  6.724291609153E-02  7.309877962804E-02  7.852233426508E-02
  8.434828884711E-02  8.953211401853E-02  9.503452352372E-02  1.008750967224E-01
  1.070746162705E-01  1.123074526400E-01  1.177960226038E-01  1.235528241010E-01
  1.295909658570E-01  1.359241972326E-01  1.425669395327E-01  1.477611846294E-01
  1.531446754392E-01  1.587243068888E-01  1.645072251130E-01  1.705008366068E-01
  1.767128177115E-01  1.831511244461E-01  1.898240026970E-01  1.967399987792E-01
  2.039079703814E-01  2.113370979113E-01  2.164396208033E-01  2.216653390080E-01
  2.270172269530E-01  2.324983308805E-01  2.381117705813E-01  2.438607411702E-01
  2.497485149050E-01  2.557784430489E-01  2.619539577779E-01  2.682785741345E-01
  2.747558920284E-01  2.813895982855E-01  2.881834687465E-01  2.951413704159E-01
  3.022672636632E-01  3.095652044771E-01  3.170393467740E-01  3.246939447625E-01
  3.325333553649E-01  3.405620406968E-01  3.487845706074E-01  3.572056252801E-01
  3.658299978969E-01  3.746625973661E-01  3.837084511169E-01  3.929727079607E-01
  4.024606410217E-01  4.121776507385E-01  4.221292679380E-01  4.271948191532E-01
  4.323211569831E-01  4.375090108669E-01  4.427591189973E-01  4.480722284252E-01
  4.534490951663E-01  4.588904843083E-01  4.643971701200E-01  4.699699361615E-01
  4.756095753954E-01  4.813168903001E-01  4.870926929837E-01  4.929378052995E-01
  4.988530589631E-01  5.048392956707E-01  5.108973672188E-01  5.170281356254E-01
  5.232324732529E-01  5.295112629319E-01  5.358653980871E-01  5.422957828641E-01
  5.488033322585E-01  5.553889722456E-01  5.620536399126E-01  5.687982835915E-01
  5.756238629946E-01  5.825313493505E-01  5.895217255428E-01  5.965959862493E-01
  6.037551380843E-01  6.110001997413E-01  6.183322021382E-01  6.257521885638E-01
  6.332612148266E-01  6.408603494045E-01  6.485506735974E-01  6.563332816805E-01
  6.642092810607E-01  6.721797924334E-01  6.802459499426E-01  6.884089013419E-01
  6.966698081580E-01  7.050298458559E-01  7.134902040062E-01  7.220520864543E-01
  7.307167114917E-01  7.394853120296E-01  7.483591357740E-01  7.573394454033E-01
  7.664275187481E-01  7.756246489731E-01  7.849321447608E-01  7.943513304979E-01
  8.038835464639E-01  8.135301490214E-01  8.232925108097E-01  8.331720209394E-01
  8.431700851907E-01  8.532881262130E-01  8.635275837275E-01  8.738899147323E-01
  8.843765937091E-01  8.949891128336E-01  9.057289821876E-01  9.165977299738E-01
  9.275969027335E-01  9.387280655663E-01  9.499928023531E-01  9.613927159813E-01
  9.729294285731E-01  9.846045817160E-01  9.964198366966E-01  1.008376874737E+00
  1.020477397234E+00  1.032723126001E+00  1.045115803513E+00  1.057657193155E+00
  1.070349079473E+00  1.083193268426E+00  1.096191587647E+00  1.109345886699E+00
  1.122658037340E+00  1.136129933788E+00  1.149763492993E+00  1.163560654909E+00
  1.177523382768E+00  1.191653663361E+00  1.205953507321E+00  1.220424949409E+00
  1.235070048802E+00  1.249890889388E+00  1.264889580060E+00  1.280068255021E+00
  1.295429074081E+00  1.310974222970E+00  1.326705913646E+00  1.342626384610E+00
  1.358737901225E+00  1.375042756040E+00  1.391543269112E+00  1.408241788342E+00
  1.425140689802E+00  1.442242378079E+00  1.459549286616E+00  1.477063878056E+00
  1.494788644592E+00  1.512726108328E+00  1.530878821627E+00  1.549249367487E+00
  1.567840359897E+00  1.586654444216E+00  1.605694297546E+00  1.624962629117E+00
  1.644462180666E+00  1.664195726834E+00  1.684166075556E+00  1.704376068463E+00
  1.724828581284E+00  1.745526524260E+00  1.766472842551E+00  1.787670516662E+00
  1.809122562861E+00  1.830832033616E+00  1.852802018019E+00  1.875035642235E+00
  1.897536069942E+00  1.920306502782E+00  1.943350180815E+00  1.966670382985E+00
  1.990270427581E+00  2.014153672711E+00  2.038323516784E+00  2.062783398985E+00
  2.087536799773E+00  2.112587241371E+00  2.137938288267E+00  2.163593547726E+00
  2.189556670299E+00  2.215831350343E+00  2.242421326547E+00  2.269330382465E+00
  2.296562347055E+00  2.324121095219E+00  2.352010548362E+00  2.380234674942E+00
  2.408797491042E+00  2.437703060934E+00  2.466955497665E+00  2.496558963637E+00
  2.526517671201E+00  2.556835883255E+00  2.587517913855E+00  2.618568128821E+00
  2.649990946367E+00  2.681790837723E+00  2.713972327776E+00  2.746539995709E+00
  2.779498475658E+00  2.812852457365E+00  2.846606686854E+00  2.880765967096E+00
  2.915335158701E+00  2.950319180606E+00  2.985723010773E+00  3.021551686902E+00
  3.057810307145E+00  3.094504030831E+00  3.131638079201E+00  3.169217736151E+00
  3.207248348985E+00  3.245735329173E+00  3.284684153123E+00  3.324100362960E+00
  3.363989567316E+00  3.404357442124E+00  3.445209731429E+00  3.486552248206E+00
  3.528390875185E+00  3.570731565687E+00  3.613580344475E+00  3.656943308609E+00
  3.700826628312E+00  3.745236547852E+00  3.790179386426E+00  3.835661539063E+00
  3.881689477532E+00  3.928269751262E+00  3.975408988278E+00  4.023113896137E+00
  4.071391262890E+00  4.120247958045E+00  4.169690933542E+00  4.219727224744E+00
  4.270363951441E+00  4.321608318858E+00  4.373467618685E+00  4.425949230109E+00
  4.479060620870E+00  4.532809348321E+00  4.587203060501E+00  4.642249497227E+00
  4.697956491193E+00  4.754331969088E+00  4.811383952717E+00  4.869120560149E+00
  4.927550006871E+00  4.986680606954E+00  5.046520774237E+00  5.107079023528E+00
  5.168363971810E+00  5.230384339472E+00  5.293148951546E+00  5.356666738964E+00
  5.420946739832E+00  5.485998100710E+00  5.551830077918E+00  5.618452038853E+00
  5.685873463319E+00  5.754103944879E+00  5.823153192218E+00  5.893031030524E+00
  5.963747402891E+00  6.035312371725E+00  6.107736120186E+00  6.181028953628E+00
  6.255201301072E+00  6.330263716685E+00  6.406226881285E+00  6.483101603860E+00
  6.560898823107E+00  6.639629608984E+00  6.719305164292E+00  6.799936826263E+00
  6.881536068178E+00  6.964114500997E+00  7.047683875009E+00  7.132256081509E+00
  7.217843154487E+00  7.304457272341E+00  7.392110759609E+00  7.480816088724E+00
  7.570585881789E+00  7.661432912370E+00  7.753370107319E+00  7.846410548606E+00
  7.940567475190E+00  8.035854284892E+00  8.132284536311E+00  8.229871950746E+00
  8.328630414155E+00  8.428573979125E+00  8.529716866875E+00  8.632073469277E+00
  8.735658350908E+00  8.840486251119E+00  8.946572086133E+00  9.053930951166E+00
  9.162578122580E+00  9.272529060051E+00  9.383799408772E+00  9.496405001677E+00
  9.610361861697E+00  9.725686204038E+00  9.842394438486E+00  9.960503171748E+00
  1.008002920981E+01  1.020098956033E+01  1.032340143505E+01  1.044728225227E+01
  1.057264963930E+01  1.069952143497E+01  1.082791569219E+01  1.095785068050E+01
  1.108934488866E+01  1.122241702733E+01  1.135708603165E+01  1.149337106403E+01
  1.163129151680E+01  1.177086701500E+01  1.191211741918E+01  1.205506282821E+01
  1.219972358215E+01  1.234612026514E+01  1.249427370832E+01  1.264420499282E+01
  1.279593545273E+01  1.294948667817E+01  1.310488051830E+01  1.326213908452E+01
  1.342128475354E+01  1.358234017058E+01  1.374532825263E+01  1.391027219166E+01
  1.407719545796E+01  1.424612180345E+01  1.441707526510E+01  1.459008016828E+01
  1.476516113030E+01  1.494234306386E+01  1.512165118063E+01  1.530311099479E+01
  1.548674832673E+01  1.567258930665E+01  1.586066037833E+01  1.605098830287E+01
  1.624360016251E+01  1.643852336446E+01  1.663578564483E+01  1.683541507257E+01
  1.703744005344E+01  1.724188933408E+01  1.744879200609E+01  1.765817751016E+01
  1.787007564028E+01  1.808451654797E+01  1.830153074654E+01  1.852114911550E+01
  1.874340290489E+01  1.896832373975E+01  1.919594362462E+01  1.942629494812E+01
  1.965941048750E+01  1.989532341335E+01  2.013406729431E+01  2.037567610184E+01
  2.062018421506E+01  2.086762642564E+01  2.111803794275E+01  2.137145439806E+01
  2.162791185084E+01  2.188744679305E+01  2.215009615457E+01  2.241589730842E+01
  2.268488807612E+01  2.295710673303E+01  2.323259201383E+01  2.351138311800E+01
  2.379351971541E+01  2.407904195200E+01  2.436799045542E+01  2.466040634089E+01
  2.495633121698E+01  2.525580719158E+01  2.555887687788E+01  2.586558340041E+01
  2.617597040122E+01  2.649008204603E+01  2.680796303059E+01  2.712965858695E+01
  2.745521449000E+01  2.778467706388E+01  2.811809318864E+01  2.845551030691E+01
  2.879697643059E+01  2.914254014776E+01  2.949225062953E+01  2.984615763708E+01
  3.020431152873E+01  3.056676326707E+01  3.093356442628E+01  3.130476719939E+01
  3.168042440579E+01  3.206058949866E+01  3.244531657264E+01  3.283466037151E+01
  3.322867629597E+01  3.362742041152E+01  3.403094945646E+01  3.443932084994E+01
  3.485259270014E+01  3.527082381254E+01  3.569407369829E+01  3.612240258267E+01
  3.655587141366E+01  3.699454187062E+01  3.743847637307E+01  3.788773808955E+01
  3.834239094662E+01  3.880249963798E+01  3.926812963364E+01  3.973934718924E+01
  4.021621935551E+01  4.069881398778E+01  4.118719975563E+01  4.168144615270E+01
  4.218162350653E+01  4.268780298861E+01  4.320005662447E+01  4.371845730397E+01
  4.424307879162E+01
</grid-data>
</grid>
<valence-charge total-charge="3" is-unscreening-charge="yes"
 rescaled-to-z-pseudo="no">
<radfunc>
<data npts="457">
  3.530384548424E+01  3.529983376646E+01  3.528784234108E+01  3.526784103097E+01
  3.524004183433E+01  3.520350562693E+01  3.515696832132E+01  3.510371707382E+01
  3.504389017127E+01  3.497418726381E+01  3.489570368056E+01  3.481049780056E+01
  3.470766118495E+01  3.460042202310E+01  3.447413218156E+01  3.434824088522E+01
  3.420356487448E+01  3.406671531806E+01  3.391320489346E+01  3.374110117156E+01
  3.354827326465E+01  3.337752266207E+01  3.319071136391E+01  3.298644194038E+01
  3.276321900336E+01  3.251944747055E+01  3.225343211577E+01  3.203824742723E+01
  3.180875086746E+01  3.156412092906E+01  3.130350888656E+01  3.102604123035E+01
  3.073082280313E+01  3.041694073648E+01  3.008346929206E+01  2.972947571887E+01
  2.935402724244E+01  2.895619930604E+01  2.867809882432E+01  2.838938631663E+01
  2.808980708609E+01  2.777911554003E+01  2.745707712465E+01  2.712347041645E+01
  2.677808937414E+01  2.642074575318E+01  2.605127168375E+01  2.566952241106E+01
  2.527537919475E+01  2.486875236143E+01  2.444958450190E+01  2.401785380076E+01
  2.357357748282E+01  2.311681535629E+01  2.264767342811E+01  2.216630756196E+01
  2.167292714365E+01  2.116779871287E+01  2.065124951433E+01  2.012367091428E+01
  1.958552162228E+01  1.903733065117E+01  1.847969994157E+01  1.791330657123E+01
  1.733890446354E+01  1.675732550504E+01  1.616947997744E+01  1.587351308103E+01
  1.557635620809E+01  1.527814489293E+01  1.497901934167E+01  1.467912433911E+01
  1.437860913837E+01  1.407762733252E+01  1.377633670767E+01  1.347489907695E+01
  1.317348009497E+01  1.287224905219E+01  1.257137864904E+01  1.227104474942E+01
  1.197142611337E+01  1.167270410896E+01  1.137506240342E+01  1.107868663350E+01
  1.078376405564E+01  1.049048317605E+01  1.019903336153E+01  9.909604431574E+00
  9.622386232698E+00  9.337568195975E+00  9.055338879034E+00  8.775885493838E+00
  8.499393421806E+00  8.226045717980E+00  7.956022606146E+00  7.689500966940E+00
  7.426653821192E+00  7.167649810883E+00  6.912652680258E+00  6.661820759783E+00
  6.415306455755E+00  6.173255748499E+00  5.935807702172E+00  5.703093989278E+00
  5.475238433051E+00  5.252356570896E+00  5.034555242061E+00  4.821932202727E+00
  4.614575771593E+00  4.412564508993E+00  4.215966932429E+00  4.024841271240E+00
  3.839235262976E+00  3.659185993760E+00  3.484719784711E+00  3.315852126163E+00
  3.152587661129E+00  2.994920219058E+00  2.842832900590E+00  2.696298213569E+00
  2.555278260191E+00  2.419724974681E+00  2.289580410465E+00  2.164777075356E+00
  2.045238312799E+00  1.930878726802E+00  1.821604647725E+00  1.717314635724E+00
  1.617900018245E+00  1.523245457635E+00  1.433229544623E+00  1.347725413190E+00
  1.266601372124E+00  1.189721548430E+00  1.116946537661E+00  1.048134056227E+00
  9.831395907886E-01  9.218170399159E-01  8.640193434053E-01  8.095990948421E-01
  7.584091333042E-01  7.103031104320E-01  6.651360294776E-01  6.227647533648E-01
  5.830484792433E-01  5.458491774888E-01  5.110319935737E-01  4.784656117112E-01
  4.480225796272E-01  4.195795942515E-01  3.930177485089E-01  3.682227397408E-01
  3.450850405798E-01  3.235000333281E-01  3.033681090558E-01  2.845947327272E-01
  2.670904756927E-01  2.507710168524E-01  2.355571137118E-01  2.213745444349E-01
  2.081540218537E-01  1.958310802628E-01  1.843459357096E-01  1.736433204337E-01
  1.636722921227E-01  1.543860187663E-01  1.457415401255E-01  1.376995071983E-01
  1.302237947877E-01  1.232806967543E-01  1.168379525509E-01  1.108647277174E-01
  1.053315789419E-01  1.002104291169E-01  9.547454229612E-02  9.109849947808E-02
  8.705817501581E-02  8.333071328759E-02  7.989450489574E-02  7.672916118472E-02
  7.381548529711E-02  7.113543736522E-02  6.867209087668E-02  6.640957696173E-02
  6.433301366656E-02  6.242841867304E-02  6.068260688975E-02  5.908307903081E-02
  5.761791293597E-02  5.627567372650E-02  5.504535867554E-02  5.391638570177E-02
  5.287862219903E-02  5.192243907696E-02  5.103876948607E-02  5.021915468941E-02
  4.945576775622E-02  4.874141415397E-02  4.806951367317E-02  4.743406998638E-02
  4.682963366533E-02  4.625126300520E-02  4.569448543297E-02  4.515526101531E-02
  4.462994872052E-02  4.411527557062E-02  4.360830854559E-02  4.310642898295E-02
  4.260730918423E-02  4.210889095387E-02  4.160936582822E-02  4.110715678975E-02
  4.060090129617E-02  4.008943548465E-02  3.957177943534E-02  3.904712339813E-02
  3.851481490115E-02  3.797434667137E-02  3.742534530638E-02  3.686756064311E-02
  3.630085577513E-02  3.572519767413E-02  3.514064837505E-02  3.454735668753E-02
  3.394555039904E-02  3.333552893752E-02  3.271765646384E-02  3.209235536652E-02
  3.146010013289E-02  3.082141157320E-02  3.017685137555E-02  2.952701697135E-02
  2.887253669239E-02  2.821406520208E-02  2.755227918452E-02  2.688787327630E-02
  2.622155622675E-02  2.555404727348E-02  2.488607272061E-02  2.421836270792E-02
  2.355164815973E-02  2.288665790298E-02  2.222411594440E-02  2.156473889733E-02
  2.090923354937E-02  2.025829456249E-02  1.961260229799E-02  1.897282075959E-02
  1.833959564863E-02  1.771355252646E-02  1.709529508010E-02  1.648540348870E-02
  1.588443288931E-02  1.529291194219E-02  1.471134149703E-02  1.414019336301E-02
  1.357990918677E-02  1.303089944364E-02  1.249354254838E-02  1.196818409219E-02
  1.145513621329E-02  1.095467710826E-02  1.046705069085E-02  9.992466404256E-03
  9.531099191773E-03  9.083089629059E-03  8.648544219722E-03  8.227535853856E-03
  7.820104427164E-03  7.426257616151E-03  7.045971802842E-03  6.679193140491E-03
  6.325838749961E-03  5.985798034902E-03  5.658934102549E-03  5.345085276843E-03
  5.044066684577E-03  4.755671907723E-03  4.479674678430E-03  4.215830605200E-03
  3.963878914665E-03  3.723544194687E-03  3.494538125304E-03  3.276561184993E-03
  3.069304320794E-03  2.872450571976E-03  2.685676638125E-03  2.508654383775E-03
  2.341052272925E-03  2.182536727987E-03  2.032773408905E-03  1.891428409279E-03
  1.758169367423E-03  1.632666491220E-03  1.514593496601E-03  1.403628460255E-03
  1.299454587926E-03  1.201760900319E-03  1.110242839178E-03  1.024602796588E-03
  9.445505709598E-04  8.698037534558E-04  8.000880488626E-04  7.351375351218E-04
  6.746948657034E-04  6.185114194101E-04  5.663474014183E-04  5.179719004200E-04
  4.731629055954E-04  4.317072874229E-04  3.934007462530E-04  3.580477321620E-04
  3.254613394287E-04  2.954631787415E-04  2.678832299823E-04  2.425596781772E-04
  2.193387349540E-04  1.980744476054E-04  1.786284976281E-04  1.608699904012E-04
  1.446752374759E-04  1.299275327813E-04  1.165169239072E-04  1.043399795020E-04
  9.329955372074E-05  8.330454857976E-05  7.426967500651E-05  6.611521332615E-05
  5.876677388734E-05  5.215505850112E-05  4.621562334479E-05  4.088864396347E-05
  3.611868298495E-05  3.185446114539E-05  2.804863220353E-05  2.465756229746E-05
  2.164111427083E-05  1.896243746326E-05  1.658776342336E-05  1.448620796169E-05
  1.262957991665E-05  1.099219695764E-05  9.550708699899E-06  8.283927352574E-06
  7.172666068818E-06  6.199585113488E-06  5.349045911800E-06  4.606972991743E-06
  3.960723784761E-06  3.398966203891E-06  2.911563876561E-06  2.489468871102E-06
  2.124621721939E-06  1.809858528523E-06  1.538824877525E-06  1.305896316586E-06
  1.106105090849E-06  9.350728405771E-07  7.889489490745E-07  6.643542246428E-07
  5.583295981904E-07  4.682895190011E-07  3.919797347695E-07  3.274391479982E-07
  2.729654488805E-07  2.270842345589E-07  1.885213358406E-07  1.561780847649E-07
  1.291092695989E-07  1.065035376181E-07  8.766602018935E-08  7.200296900579E-08
  5.900820665184E-08  4.825120883433E-08  3.936664948217E-08  3.204525337081E-08
  2.602581388256E-08  2.108824589807E-08  1.704755557248E-08  1.374861984590E-08
  1.106167894670E-08  8.878454857005E-09  7.108817721845E-09  5.677930505246E-09
  4.523809843769E-09  3.595248043433E-09  2.850047536046E-09  2.253524886990E-09
  1.777246661516E-09  1.397964146055E-09  1.096718120838E-09  8.580886267402E-10
  6.695679986840E-10  5.210383853775E-10  4.043375747912E-10  3.128992290703E-10
  2.414556325458E-10  1.857928011649E-10  1.425493181704E-10  1.090515743401E-10
  8.317922472570E-11  6.325564876267E-11  4.795903614228E-11  3.625043436386E-11
  2.731570109615E-11  2.051881940729E-11  1.536446906701E-11  1.146811355513E-11
  8.532169895287E-12  6.327085544547E-12  4.676360801775E-12  3.444733067536E-12
  2.528886442531E-12  1.850171457790E-12  1.348919368857E-12  9.800169915021E-13
  7.094745507954E-13  5.117730376701E-13  3.678212946703E-13  2.633883154247E-13
  1.879045725215E-13  1.335488627665E-13  9.455523725870E-14  6.668894241327E-14
  4.685165813495E-14  3.278527183456E-14  2.285045426584E-14  1.586179725057E-14
  1.096555146908E-14  7.549320205250E-15  5.175627282863E-15  3.533248185303E-15
  2.401702746659E-15  1.625458950651E-15  1.095271546734E-15  7.347401627013E-16
  4.906691746735E-16  3.261845229689E-16  2.158409165247E-16  1.421595466096E-16
  9.318924384378E-17  6.079647841673E-17  3.947198712402E-17  2.550188402923E-17
  1.639466352892E-17  1.048706597170E-17  6.674225853622E-18  4.225876717123E-18
  2.661797210984E-18  1.667816191268E-18  1.039462903618E-18  6.443614149278E-19
  3.972662831544E-19  0.000000000000E+00  0.000000000000E+00  0.000000000000E+00
  0.000000000000E+00
</data>
</radfunc>
</valence-charge>
<semilocal-potentials set="scalar_relativistic">
<slps n="1" l="s" rc="1.40824178834" eref="-1.90562301682">
<radfunc>
<data npts="256">
 -1.167786994184E+01 -1.167743659867E+01 -1.167614119690E+01 -1.167398005517E+01
 -1.167097539450E+01 -1.166702469512E+01 -1.166198974601E+01 -1.165622449878E+01
 -1.164974232313E+01 -1.164218333556E+01 -1.163366331939E+01 -1.162440286145E+01
 -1.161321122154E+01 -1.160152270079E+01 -1.158773411954E+01 -1.157396316212E+01
 -1.155810485410E+01 -1.154307178517E+01 -1.152616997724E+01 -1.150717155300E+01
 -1.148582185599E+01 -1.146685916101E+01 -1.144604965994E+01 -1.142321809266E+01
 -1.139817332456E+01 -1.137070701492E+01 -1.134059218396E+01 -1.131612009100E+01
 -1.128990737305E+01 -1.126183445222E+01 -1.123177398179E+01 -1.119959037902E+01
 -1.116513933246E+01 -1.112826728265E+01 -1.108881087558E+01 -1.104659638852E+01
 -1.100143912827E+01 -1.095314280261E+01 -1.091909886628E+01 -1.088350241413E+01
 -1.084628584652E+01 -1.080737882677E+01 -1.076670818787E+01 -1.072419783896E+01
 -1.067976867206E+01 -1.063333846991E+01 -1.058482181585E+01 -1.053413000680E+01
 -1.048117097054E+01 -1.042584918894E+01 -1.036806562869E+01 -1.030771768169E+01
 -1.024469911723E+01 -1.017890004865E+01 -1.011020691753E+01 -1.003850249860E+01
 -9.963665929405E+00 -9.885572768794E+00 -9.804095089298E+00 -9.719101608552E+00
 -9.630457865896E+00 -9.538026450741E+00 -9.441667290019E+00 -9.341238002791E+00
 -9.236594330773E+00 -9.127590654300E+00 -9.014080604045E+00 -8.955589917780E+00
 -8.895917779463E+00 -8.835046021421E+00 -8.772956585683E+00 -8.709631557509E+00
 -8.645053201228E+00 -8.579203998567E+00 -8.512066689536E+00 -8.443624315984E+00
 -8.373860267986E+00 -8.302758333124E+00 -8.230302748851E+00 -8.156478258017E+00
 -8.081270167776E+00 -8.004664411951E+00 -7.926647617140E+00 -7.847207172668E+00
 -7.766331304703E+00 -7.684009154760E+00 -7.600230862953E+00 -7.514987656337E+00
 -7.428271942841E+00 -7.340077411318E+00 -7.250399138337E+00 -7.159233702544E+00
 -7.066579307446E+00 -6.972435913742E+00 -6.876805382416E+00 -6.779691630073E+00
 -6.681100798164E+00 -6.581041437968E+00 -6.479524713441E+00 -6.376564624225E+00
 -6.272178251292E+00 -6.166386027845E+00 -6.059212038207E+00 -5.950684347386E+00
 -5.840835363957E+00 -5.729702238657E+00 -5.617327300750E+00 -5.503758533660E+00
 -5.389050090701E+00 -5.273262850791E+00 -5.156465012962E+00 -5.038732727178E+00
 -4.920150757487E+00 -4.800813171908E+00 -4.680824051698E+00 -4.560298210762E+00
 -4.439361914109E+00 -4.318153582353E+00 -4.196824467406E+00 -4.075539282813E+00
 -3.954476770544E+00 -3.833830184684E+00 -3.713807671217E+00 -3.594632522085E+00
 -3.476543280920E+00 -3.359793677195E+00 -3.244652365151E+00 -3.131402443514E+00
 -3.020340731942E+00 -2.911776780067E+00 -2.806031585164E+00 -2.703435994776E+00
 -2.604328771144E+00 -2.509054295146E+00 -2.417959888768E+00 -2.331392736989E+00
 -2.249696392703E+00 -2.173206851926E+00 -2.102248191444E+00 -2.037127767341E+00
 -1.978130980735E+00 -1.925515626645E+00 -1.879505853373E+00 -1.840285773012E+00
 -1.807992778635E+00 -1.782710640193E+00 -1.764462468789E+00 -1.753203657386E+00
 -1.748814924675E+00 -1.751095607173E+00 -1.759757361883E+00 -1.774418457594E+00
 -1.794598846679E+00 -1.819716220541E+00 -1.849083260438E+00 -1.881906301605E+00
 -1.917285632847E+00 -1.954217657189E+00 -1.991599143385E+00 -2.028233805410E+00
 -2.062841460760E+00 -2.094070042210E+00 -2.120510776726E+00 -2.140716904834E+00
 -2.153226400370E+00 -2.156589270181E+00 -2.149398747344E+00 -2.130345699129E+00
 -2.105059396467E+00 -2.080099354407E+00 -2.055433846588E+00 -2.031061126526E+00
 -2.006977503782E+00 -1.983179609504E+00 -1.959664089579E+00 -1.936427632014E+00
 -1.913466959328E+00 -1.890778820520E+00 -1.868359980939E+00 -1.846207210453E+00
 -1.824317271624E+00 -1.802686910899E+00 -1.781312857182E+00 -1.760191833075E+00
 -1.739320583473E+00 -1.718695922912E+00 -1.698314796060E+00 -1.678174335622E+00
 -1.658271892835E+00 -1.638605015793E+00 -1.619171367950E+00 -1.599968610313E+00
 -1.580994296182E+00 -1.562245823084E+00 -1.543720452905E+00 -1.525415375549E+00
 -1.507327779135E+00 -1.489454901082E+00 -1.471794052999E+00 -1.454342624813E+00
 -1.437098077313E+00 -1.420057930735E+00 -1.403219753822E+00 -1.386581155197E+00
 -1.370139777310E+00 -1.353893292549E+00 -1.337839400900E+00 -1.321975828642E+00
 -1.306300327635E+00 -1.290810674969E+00 -1.275504672770E+00 -1.260380148076E+00
 -1.245434952732E+00 -1.230666963271E+00 -1.216074080776E+00 -1.201654230714E+00
 -1.187405362752E+00 -1.173325450552E+00 -1.159412491551E+00 -1.145664506735E+00
 -1.132079540396E+00 -1.118655659891E+00 -1.105390955392E+00 -1.092283539641E+00
 -1.079331547694E+00 -1.066533136673E+00 -1.053886485513E+00 -1.041389794718E+00
 -1.029041286104E+00 -1.016839202560E+00 -1.004781807799E+00 -9.928673861154E-01
 -9.810942421459E-01 -9.694607006289E-01 -9.579651061692E-01 -9.466058230035E-01
 -9.353812347691E-01 -9.242897442744E-01 -9.133297732730E-01 -9.024997622389E-01
 -8.917981701453E-01 -8.812234742454E-01 -8.707741698560E-01 -8.604487701431E-01
 -8.502458059109E-01 -8.401638253917E-01 -8.302013940401E-01 -8.203570943274E-01
 -8.106295255403E-01 -8.010173035804E-01 -7.915190607662E-01 -7.821334456382E-01
 -7.728591227646E-01 -7.636947725506E-01 -7.546390910487E-01 -7.456907897720E-01
</data>
</radfunc>
</slps>
<slps n="2" l="p" rc="1.10934588670" eref="0.149822369943E-09">
<radfunc>
<data npts="256">
 -8.213449014769E+00 -8.213594907778E+00 -8.214029552940E+00 -8.214749774810E+00
 -8.215740929305E+00 -8.217026163510E+00 -8.218634558913E+00 -8.220435655748E+00
 -8.222409122946E+00 -8.224641664546E+00 -8.227069643647E+00 -8.229602844230E+00
 -8.232518014388E+00 -8.235392649486E+00 -8.238561996414E+00 -8.241489438578E+00
 -8.244568539653E+00 -8.247201216394E+00 -8.249831630172E+00 -8.252376179644E+00
 -8.254721178984E+00 -8.256353110070E+00 -8.257662188603E+00 -8.258526390734E+00
 -8.258796516973E+00 -8.258291504406E+00 -8.256793195262E+00 -8.254862384407E+00
 -8.252099107845E+00 -8.248358368118E+00 -8.243476498993E+00 -8.237269558440E+00
 -8.229531752527E+00 -8.220033943963E+00 -8.208522313221E+00 -8.194717256325E+00
 -8.178312621693E+00 -8.158975408328E+00 -8.144278234063E+00 -8.128005525535E+00
 -8.110039580929E+00 -8.090258226524E+00 -8.068535260722E+00 -8.044741018436E+00
 -8.018743068733E+00 -7.990407058423E+00 -7.959597713775E+00 -7.926180011443E+00
 -7.890020528027E+00 -7.850988975224E+00 -7.808959924308E+00 -7.763814719288E+00
 -7.715443572677E+00 -7.663747831019E+00 -7.608642389160E+00 -7.550058222549E+00
 -7.487944995637E+00 -7.422273691622E+00 -7.353039194628E+00 -7.280262739960E+00
 -7.203994131903E+00 -7.124313612124E+00 -7.041333245948E+00 -6.955197679739E+00
 -6.866084111740E+00 -6.774201312708E+00 -6.679787533794E+00 -6.631713243395E+00
 -6.583107149504E+00 -6.534005601386E+00 -6.484445906130E+00 -6.434466097937E+00
 -6.384104683414E+00 -6.333400363401E+00 -6.282391732059E+00 -6.231116954474E+00
 -6.179613424473E+00 -6.127917404801E+00 -6.076063652441E+00 -6.024085032364E+00
 -5.972012123682E+00 -5.919872822741E+00 -5.867691948475E+00 -5.815490855853E+00
 -5.763287064106E+00 -5.711093906923E+00 -5.658920212551E+00 -5.606770022225E+00
 -5.554642355946E+00 -5.502531035001E+00 -5.450424570933E+00 -5.398306130880E+00
 -5.346153589145E+00 -5.293939674733E+00 -5.241632224089E+00 -5.189194547648E+00
 -5.136585917798E+00 -5.083762184523E+00 -5.030676523361E+00 -4.977280318239E+00
 -4.923524179236E+00 -4.869359092476E+00 -4.814737695964E+00 -4.759615671389E+00
 -4.703953237693E+00 -4.647716727593E+00 -4.590880223257E+00 -4.533427222108E+00
 -4.475352298325E+00 -4.416662720214E+00 -4.357379978337E+00 -4.297541174439E+00
 -4.237200216942E+00 -4.176428765423E+00 -4.115316864450E+00 -4.053973206557E+00
 -3.992524965641E+00 -3.931117145712E+00 -3.869911396307E+00 -3.809084255102E+00
 -3.748824790621E+00 -3.689331633531E+00 -3.630809403851E+00 -3.573464563252E+00
 -3.517500746210E+00 -3.463113650490E+00 -3.410485595526E+00 -3.359779885751E+00
 -3.311135143574E+00 -3.264659802158E+00 -3.220426969844E+00 -3.178469894346E+00
 -3.138778264111E+00 -3.101295584750E+00 -3.065917858898E+00 -3.032493776929E+00
 -3.000826592758E+00 -2.970677813222E+00 -2.941772771174E+00 -2.913808082369E+00
 -2.886460905705E+00 -2.859399837679E+00 -2.832297177775E+00 -2.804842205528E+00
 -2.776755016625E+00 -2.747800379387E+00 -2.717801000085E+00 -2.686649531633E+00
 -2.655119012508E+00 -2.624093979708E+00 -2.593540522467E+00 -2.563450749326E+00
 -2.533814668131E+00 -2.504620138433E+00 -2.475852818616E+00 -2.447496114538E+00
 -2.419531139340E+00 -2.391936696479E+00 -2.364689299680E+00 -2.337763244508E+00
 -2.311130747196E+00 -2.284762168351E+00 -2.258626344354E+00 -2.232691061163E+00
 -2.206923728692E+00 -2.181292355794E+00 -2.155765570363E+00 -2.130330342748E+00
 -2.105059396467E+00 -2.080099354407E+00 -2.055433846588E+00 -2.031061126526E+00
 -2.006977503782E+00 -1.983179609504E+00 -1.959664089579E+00 -1.936427632014E+00
 -1.913466959328E+00 -1.890778820520E+00 -1.868359980939E+00 -1.846207210453E+00
 -1.824317271624E+00 -1.802686910899E+00 -1.781312857182E+00 -1.760191833075E+00
 -1.739320583473E+00 -1.718695922912E+00 -1.698314796060E+00 -1.678174335622E+00
 -1.658271892835E+00 -1.638605015793E+00 -1.619171367950E+00 -1.599968610313E+00
 -1.580994296182E+00 -1.562245823084E+00 -1.543720452905E+00 -1.525415375549E+00
 -1.507327779135E+00 -1.489454901082E+00 -1.471794052999E+00 -1.454342624813E+00
 -1.437098077313E+00 -1.420057930735E+00 -1.403219753822E+00 -1.386581155197E+00