<?xml version="1.0" encoding="UTF-8" ?>
<psml version="1.1" energy_unit="hartree" length_unit="bohr"
 uuid="6367c560-be6c-11e7-6206-bd54a77fdc73"
 xmlns="http://esl.cecam.org/PSML/ns/1.1">
<provenance creator="ONCVPSP-3.3.0+psml-3.3.0-73 (scalar-relativistic)"
 date="2017-10-31">
<annotation action="semilocal-pseudopotential-generation"
 action-cont="projectors-generation" />
<input-file name="oncvpsp-input">
<![CDATA[# atsym z nc nv iexc psfile
Rh 45 6 4 4 upf
# n l f
1 0 2.0
2 0 2.0
2 1 6.0
3 0 2.0
3 1 6.0
3 2 10.0
4 0 2.0
4 1 6.0
4 2 8.0
5 0 1.0
# lmax
2
# l rc ep ncon nbas qcut
0 1.4 0.0 4 7 9.4
1 1.4 0.0 4 7 9.4
2 1.35 0.0 4 7 9.4
# lloc lpopt rc5 dvloc0
4 5 1.3 0.0
# l nproj debl
0 2 1.0
1 2 1.0
2 2 1.0
# icmod fcfact rcfact
3 7.0 1.23
# epsh1 epsh2 depsh
-12.0 12.0 0.02
# rlmax drl
6.0 0.01
 0
]]>
</input-file>
</provenance>
<pseudo-atom-spec atomic-label="Rh" atomic-number="45" z-pseudo="17"
 flavor="Hamann&apos;s oncvpsp" relativity="scalar" spin-dft="no"
 core-corrections="yes">
<annotation pseudo-energy="-110.662435705" />
<exchange-correlation>
<annotation oncvpsp-xc-code="4" oncvpsp-xc-type="GGA -- Perdew-Burke-Ernzerhof" />
<libxc-info number-of-functionals="2">
<functional name="Perdew, Burke &amp; Ernzerhof (GGA)" type="exchange" id="101" />
<functional name="Perdew, Burke &amp; Ernzerhof (GGA)" type="correlation"
 id="130" />
</libxc-info>
</exchange-correlation>
<valence-configuration total-valence-charge="17">
<shell n="4" l="s" occupation="2" />
<shell n="4" l="p" occupation="6" />
<shell n="4" l="d" occupation="8" />
<shell n="5" l="s" occupation="1" />
</valence-configuration>
</pseudo-atom-spec>
<grid npts="457">
<annotation type="sampled from oncvpsp log grid"
 recipe="r(i:1..N) = r1*exp(a*(i-1)) + r=0; resampled"
 recipe-cont="r1: scale; a: step" scale="0.111111111111E-04"
 step="0.119285708653E-01" delta="0.500000000000E-02" rmax="44.2313729721" />
<grid-data>
  0.000000000000E+00  5.050802712143E-03  1.008858204474E-02  1.513448179686E-02
  2.015115091088E-02  2.527723656897E-02  3.059269895389E-02  3.572435987247E-02
  4.073334664942E-02  4.589392675613E-02  5.109516791654E-02  5.621133901271E-02
  6.183979351557E-02  6.722512498246E-02  7.307943917649E-02  7.850155885119E-02
  8.432597200403E-02  8.950842564066E-02  9.500937932012E-02  1.008484072218E-01
  1.070462865031E-01  1.122777383704E-01  1.177648561701E-01  1.235201345346E-01
  1.295566787210E-01  1.358882344523E-01  1.425292192178E-01  1.477220900228E-01
  1.531041564703E-01  1.586823116628E-01  1.644636998444E-01  1.704557255504E-01
  1.766660630911E-01  1.831026663806E-01  1.897737791236E-01  1.966879453737E-01
  2.038540204763E-01  2.112811824101E-01  2.163823552782E-01  2.216066908640E-01
  2.269571628082E-01  2.324368165471E-01  2.380487710458E-01  2.437962205739E-01
  2.496824365235E-01  2.557107692709E-01  2.618846500842E-01  2.682075930758E-01
  2.746831972030E-01  2.813151483163E-01  2.881072212572E-01  2.950632820073E-01
  3.021872898880E-01  3.094832998151E-01  3.169554646058E-01  3.246080373433E-01
  3.324453737969E-01  3.404719349019E-01  3.486922892981E-01  3.571111159309E-01
  3.657332067140E-01  3.745634692569E-01  3.836069296586E-01  3.928687353683E-01
  4.023541581150E-01  4.120685969086E-01  4.220175811123E-01  4.270817920857E-01
  4.322067735907E-01  4.373932548738E-01  4.426419739323E-01  4.479536776194E-01
  4.533291217509E-01  4.587690712119E-01  4.642743000664E-01  4.698455916672E-01
  4.754837387672E-01  4.811895436324E-01  4.869638181560E-01  4.928073839739E-01
  4.987210725816E-01  5.047057254526E-01  5.107621941580E-01  5.168913404879E-01
  5.230940365738E-01  5.293711650126E-01  5.357236189928E-01  5.421523024207E-01
  5.486581300498E-01  5.552420276104E-01  5.619049319417E-01  5.686477911250E-01
  5.754715646185E-01  5.823772233939E-01  5.893657500746E-01  5.964381390755E-01
  6.035953967444E-01  6.108385415054E-01  6.181686040034E-01  6.255866272515E-01
  6.330936667785E-01  6.406907907798E-01  6.483790802692E-01  6.561596292324E-01
  6.640335447832E-01  6.720019473206E-01  6.800659706884E-01  6.882267623367E-01
  6.964854834847E-01  7.048433092866E-01  7.133014289980E-01  7.218610461460E-01
  7.305233786997E-01  7.392896592441E-01  7.481611351551E-01  7.571390687769E-01
  7.662247376022E-01  7.754194344535E-01  7.847244676669E-01  7.941411612789E-01
  8.036708552143E-01  8.133149054768E-01  8.230746843426E-01  8.329515805547E-01
  8.429469995213E-01  8.530623635156E-01  8.632991118778E-01  8.736587012203E-01
  8.841426056349E-01  8.947523169026E-01  9.054893447054E-01  9.163552168419E-01
  9.273514794440E-01  9.384796971973E-01  9.497414535637E-01  9.611383510064E-01
  9.726720112185E-01  9.843440753531E-01  9.961562042574E-01  1.008110078708E+00
  1.020207399653E+00  1.032449888449E+00  1.044839287110E+00  1.057377358555E+00
  1.070065886858E+00  1.082906677500E+00  1.095901557630E+00  1.109052376322E+00
  1.122361004838E+00  1.135829336896E+00  1.149459288939E+00  1.163252800406E+00
  1.177211834011E+00  1.191338376019E+00  1.205634436531E+00  1.220102049770E+00
  1.234743274367E+00  1.249560193659E+00  1.264554915983E+00  1.279729574975E+00
  1.295086329875E+00  1.310627365833E+00  1.326354894223E+00  1.342271152954E+00
  1.358378406789E+00  1.374678947671E+00  1.391175095043E+00  1.407869196183E+00
  1.424763626537E+00  1.441860790056E+00  1.459163119537E+00  1.476673076971E+00
  1.494393153895E+00  1.512325871741E+00  1.530473782202E+00  1.548839467589E+00
  1.567425541200E+00  1.586234647694E+00  1.605269463467E+00  1.624532697028E+00
  1.644027089392E+00  1.663755414465E+00  1.683720479439E+00  1.703925125192E+00
  1.724372226694E+00  1.745064693415E+00  1.766005469736E+00  1.787197535372E+00
  1.808643905797E+00  1.830347632666E+00  1.852311804258E+00  1.874539545910E+00
  1.897034020460E+00  1.919798428706E+00  1.942836009850E+00  1.966150041969E+00
  1.989743842472E+00  2.013620768582E+00  2.037784217805E+00  2.062237628419E+00
  2.086984479960E+00  2.112028293719E+00  2.137372633244E+00  2.163021104843E+00
  2.188977358101E+00  2.215245086398E+00  2.241828027435E+00  2.268729963764E+00
  2.295954723329E+00  2.323506180009E+00  2.351388254169E+00  2.379604913219E+00
  2.408160172178E+00  2.437058094244E+00  2.466302791375E+00  2.495898424871E+00
  2.525849205970E+00  2.556159396442E+00  2.586833309199E+00  2.617875308909E+00
  2.649289812616E+00  2.681081290368E+00  2.713254265852E+00  2.745813317042E+00
  2.778763076847E+00  2.812108233769E+00  2.845853532574E+00  2.880003774965E+00
  2.914563820265E+00  2.949538586108E+00  2.984933049141E+00  3.020752245731E+00
  3.057001272680E+00  3.093685287952E+00  3.130809511407E+00  3.168379225544E+00
  3.206399776250E+00  3.244876573566E+00  3.283815092448E+00  3.323220873558E+00
  3.363099524040E+00  3.403456718329E+00  3.444298198949E+00  3.485629777336E+00
  3.527457334664E+00  3.569786822680E+00  3.612624264552E+00  3.655975755727E+00
  3.699847464796E+00  3.744245634373E+00  3.789176581986E+00  3.834646700970E+00
  3.880662461381E+00  3.927230410918E+00  3.974357175849E+00  4.022049461959E+00
  4.070314055502E+00  4.119157824168E+00  4.168587718059E+00  4.218610770675E+00
  4.269234099923E+00  4.320464909122E+00  4.372310488032E+00  4.424778213888E+00
  4.477875552455E+00  4.531610059084E+00  4.585989379793E+00  4.641021252351E+00
  4.696713507379E+00  4.753074069468E+00  4.810110958301E+00  4.867832289801E+00
  4.926246277279E+00  4.985361232606E+00  5.045185567397E+00  5.105727794206E+00
  5.166996527736E+00  5.229000486069E+00  5.291748491902E+00  5.355249473805E+00
  5.419512467491E+00  5.484546617100E+00  5.550361176506E+00  5.616965510624E+00
  5.684369096751E+00  5.752581525912E+00  5.821612504223E+00  5.891471854274E+00
  5.962169516525E+00  6.033715550723E+00  6.106120137332E+00  6.179393578980E+00
  6.253546301928E+00  6.328588857551E+00  6.404531923842E+00  6.481386306928E+00
  6.559162942611E+00  6.637872897922E+00  6.717527372697E+00  6.798137701170E+00
  6.879715353584E+00  6.962271937827E+00  7.045819201080E+00  7.130369031493E+00
  7.215933459871E+00  7.302524661390E+00  7.390154957327E+00  7.478836816814E+00
  7.568582858616E+00  7.659405852920E+00  7.751318723155E+00  7.844334547832E+00
  7.938466562406E+00  8.033728161155E+00  8.130132899089E+00  8.227694493878E+00
  8.326426827805E+00  8.426343949738E+00  8.527460077135E+00  8.629789598061E+00
  8.733347073238E+00  8.838147238117E+00  8.944205004974E+00  9.051535465034E+00
  9.160153890614E+00  9.270075737301E+00  9.381316646149E+00  9.493892445903E+00
  9.607819155254E+00  9.723112985117E+00  9.839790340938E+00  9.957867825029E+00
  1.007736223893E+01  1.019829058580E+01  1.032067007283E+01  1.044451811370E+01
  1.056985233106E+01  1.069669055904E+01  1.082505084575E+01  1.095495145589E+01
  1.108641087337E+01  1.121944780385E+01  1.135408117749E+01  1.149033015162E+01
  1.162821411344E+01  1.176775268280E+01  1.190896571500E+01  1.205187330358E+01
  1.219649578322E+01  1.234285373262E+01  1.249096797741E+01  1.264085959314E+01
  1.279254990826E+01  1.294606050716E+01  1.310141323324E+01  1.325863019204E+01
  1.341773375434E+01  1.357874655940E+01  1.374169151811E+01  1.390659181633E+01
  1.407347091812E+01  1.424235256914E+01  1.441326079997E+01  1.458621992957E+01
  1.476125456872E+01  1.493838962355E+01  1.511765029903E+01  1.529906210262E+01
  1.548265084785E+01  1.566844265803E+01  1.585646396992E+01  1.604674153756E+01
  1.623930243601E+01  1.643417406524E+01  1.663138415403E+01  1.683096076387E+01
  1.703293229304E+01  1.723732748056E+01  1.744417541032E+01  1.765350551525E+01
  1.786534758143E+01  1.807973175241E+01  1.829668853344E+01  1.851624879584E+01
  1.873844378139E+01  1.896330510677E+01  1.919086476805E+01  1.942115514526E+01
  1.965420900701E+01  1.989005951509E+01  2.012874022927E+01  2.037028511202E+01
  2.061472853337E+01  2.086210527577E+01  2.111245053908E+01  2.136579994555E+01
  2.162218954489E+01  2.188165581943E+01  2.214423568926E+01  2.240996651754E+01
  2.267888611575E+01  2.295103274913E+01  2.322644514212E+01  2.350516248383E+01
  2.378722443364E+01  2.407267112684E+01  2.436154318036E+01  2.465388169853E+01
  2.494972827891E+01  2.524912501825E+01  2.555211451847E+01  2.585873989270E+01
  2.616904477141E+01  2.648307330866E+01  2.680087018837E+01  2.712248063063E+01
  2.744795039820E+01  2.777732580298E+01  2.811065371261E+01  2.844798155716E+01
  2.878935733585E+01  2.913482962388E+01  2.948444757936E+01  2.983826095032E+01
  3.019632008172E+01  3.055867592270E+01  3.092538003377E+01  3.129648459418E+01
  3.167204240931E+01  3.205210691822E+01  3.243673220124E+01  3.282597298765E+01
  3.321988466351E+01  3.361852327947E+01  3.402194555882E+01  3.443020890553E+01
  3.484337141239E+01  3.526149186934E+01  3.568462977178E+01  3.611284532904E+01
  3.654619947299E+01  3.698475386666E+01  3.742857091306E+01  3.787771376402E+01
  3.833224632919E+01  3.879223328514E+01  3.925774008456E+01  3.972883296557E+01
  4.020557896116E+01  4.068804590869E+01  4.117630245960E+01  4.167041808911E+01
  4.217046310618E+01  4.267650866346E+01  4.318862676742E+01  4.370689028863E+01
  4.423137297209E+01
</grid-data>
</grid>
<valence-charge total-charge="17" is-unscreening-charge="yes"
 rescaled-to-z-pseudo="no">
<radfunc>
<data npts="457">
  3.545062086525E-01  3.557297733492E-01  3.593890501114E-01  3.654994225031E-01
  3.740062373066E-01  3.852117954534E-01  3.995260335947E-01  4.159622946321E-01
  4.345006754487E-01  4.561961729182E-01  4.807496380238E-01  5.075561655753E-01
  5.401177566879E-01  5.743163777017E-01  6.149090123551E-01  6.557173309452E-01
  7.030396170339E-01  7.482209625848E-01  7.993888886117E-01  8.573667913574E-01
  9.230974719027E-01  9.819849054870E-01  1.047147689149E+00  1.119283576848E+00
  1.199171523675E+00  1.287681187112E+00  1.385783362206E+00  1.466302183061E+00
  1.553326076197E+00  1.647400066683E+00  1.749114922425E+00  1.859110441517E+00
  1.978078779020E+00  2.106767749589E+00  2.245984022037E+00  2.396596097184E+00
  2.559536930554E+00  2.735806026067E+00  2.861247645735E+00  2.993419069256E+00
  3.132666846027E+00  3.279350706427E+00  3.433843169706E+00  3.596528962361E+00
  3.767804216610E+00  3.948075415327E+00  4.137758046511E+00  4.337274926878E+00
  4.547054150777E+00  4.767526617203E+00  4.999123084474E+00  5.242270699186E+00
  5.497388943517E+00  5.764884943073E+00  6.045148076328E+00  6.338543826746E+00
  6.645406819973E+00  6.966032991580E+00  7.300670835920E+00  7.649511694339E+00
  8.012679051499E+00  8.390216822639E+00  8.782076632576E+00  9.188104109735E+00
  9.608024246004E+00  1.004142590625E+01  1.048774561032E+01  1.071552786364E+01
  1.094625075550E+01  1.117979347598E+01  1.141602249944E+01  1.165479105113E+01
  1.189593858123E+01  1.213929024931E+01  1.238465642318E+01  1.263183219589E+01
  1.288059692513E+01  1.313071379970E+01  1.338192943773E+01  1.363397352204E+01
  1.388655847781E+01  1.413937919861E+01  1.439211282654E+01  1.464441859297E+01
  1.489593772618E+01  1.514629343283E+01  1.539509095991E+01  1.564191774440E+01
  1.588634365749E+01  1.612792135075E+01  1.636618671106E+01  1.660065943147E+01
  1.683084370471E+01  1.705622904592E+01  1.727629125068E+01  1.749049349427E+01
  1.769828757703E+01  1.789911532057E+01  1.809241011829E+01  1.827759864304E+01
  1.845410271363E+01  1.862134132053E+01  1.877873280999E+01  1.892569722427E+01
  1.906165879386E+01  1.918604857609E+01  1.929830723250E+01  1.939788793541E+01
  1.948425939182E+01  1.955690897103E+01  1.961534591952E+01  1.965910464481E+01
  1.968774804750E+01  1.970087087814E+01  1.969810309384E+01  1.967911318685E+01
  1.964361145542E+01  1.959135318560E+01  1.952214171060E+01  1.943583131325E+01
  1.933232993591E+01  1.921160166146E+01  1.907366892897E+01  1.891861444751E+01
  1.874658277285E+01  1.855778151262E+01  1.835248212785E+01  1.813102030108E+01
  1.789379584488E+01  1.764127212794E+01  1.737397500109E+01  1.709249121014E+01
  1.679746628875E+01  1.648960193043E+01  1.616965284561E+01  1.583842311696E+01
  1.549676207332E+01  1.514555971003E+01  1.478574169115E+01  1.441826397597E+01
  1.404410711946E+01  1.366427030244E+01  1.327976515324E+01  1.289160942705E+01
  1.250082061353E+01  1.210840954533E+01  1.171537408174E+01  1.132269294172E+01
  1.093131975844E+01  1.054217742488E+01  1.015615279493E+01  9.774091798216E+00
  9.396795019623E+00  9.025013785178E+00  8.659446786341E+00  8.300737263931E+00
  7.949470761709E+00  7.606173448281E+00  7.271310994826E+00  6.945287985580E+00
  6.628447828518E+00  6.321073125541E+00  6.023386455199E+00  5.735551517156E+00
  5.457674587023E+00  5.189806306145E+00  4.931944043903E+00  4.684034981217E+00
  4.445980834038E+00  4.217647314338E+00  3.998876202530E+00  3.789488009613E+00
  3.589284526462E+00  3.398051263813E+00  3.215559788258E+00  3.041569935437E+00
  2.875831898518E+00  2.718088188784E+00  2.568075466642E+00  2.425526242538E+00
  2.290170448307E+00  2.161736880427E+00  2.039954517518E+00  1.924553715124E+00
  1.815267281501E+00  1.711831438659E+00  1.613986673439E+00  1.521478483347E+00
  1.434058023256E+00  1.351482657825E+00  1.273516425737E+00  1.199930421515E+00
  1.130503100760E+00  1.065020514627E+00  1.003276479285E+00  9.450726860074E-01
  8.902187573639E-01  8.385322548269E-01  7.898386428921E-01  7.439712145895E-01
  7.007709830177E-01  6.600865432831E-01  6.217739089591E-01  5.856963269162E-01
  5.517240741020E-01  5.197342395791E-01  4.896104948662E-01  4.612428553631E-01
  4.345274353869E-01  4.093661991029E-01  3.856667093944E-01  3.633418764941E-01
  3.423097079832E-01  3.224930615662E-01  3.038194018388E-01  2.862205620904E-01
  2.696325120218E-01  2.539951321062E-01  2.392519951857E-01  2.253501557692E-01
  2.122399473840E-01  1.998747882316E-01  1.882109953079E-01  1.772076070639E-01
  1.668262146153E-01  1.570308014450E-01  1.477875914895E-01  1.390649054538E-01
  1.308330251629E-01  1.230640657220E-01  1.157318552369E-01  1.088118218211E-01
  1.022808876040E-01  9.611736944171E-02  9.030088602559E-02  8.481227108102E-02
  7.963349234648E-02  7.474757602676E-02  7.013853641757E-02  6.579131040524E-02
  6.169169655276E-02  5.782629849243E-02  5.418247235519E-02  5.074827797737E-02
  4.751243363650E-02  4.446427407950E-02  4.159371161782E-02  3.889120007576E-02
  3.634770138972E-02  3.395465466704E-02  3.170394752426E-02  2.958788953513E-02
  2.759918762871E-02  2.573092328806E-02  2.397653140877E-02  2.232978068629E-02
  2.078475540940E-02  1.933583854275E-02  1.797769599572E-02  1.670526197448E-02
  1.551372532611E-02  1.439851678905E-02  1.335529707038E-02  1.237994567720E-02
  1.146855043464E-02  1.061739762927E-02  9.822962721620E-03  9.081901576784E-03
  8.391042166943E-03  7.747376704107E-03  7.148054165703E-03  6.590373179623E-03
  6.071775239058E-03  5.589838220886E-03  5.142270184530E-03  4.726903431081E-03
  4.341688805076E-03  3.984690223670E-03  3.654079420019E-03  3.348130889509E-03
  3.065217029096E-03  2.803803461369E-03  2.562444536155E-03  2.339779003435E-03
  2.134525852162E-03  1.945480310217E-03  1.771510001238E-03  1.611551254407E-03
  1.464605563570E-03  1.329736192194E-03  1.206064920757E-03  1.092768933157E-03
  9.890778387049E-04  8.942708261455E-04  8.076739460722E-04  7.286575179502E-04
  6.566336578458E-04  5.910539228344E-04  5.314070679562E-04  4.772169115065E-04
  4.280403043936E-04  3.834651992797E-04  3.431088152304E-04  3.066158936482E-04
  2.736570413471E-04  2.439271567337E-04  2.171439352004E-04  1.930464499947E-04
  1.713938050046E-04  1.519638560880E-04  1.345519977691E-04  1.189700123173E-04
  1.050449784178E-04  9.261823682800E-05  8.154441058293E-05  7.169047747982E-05
  6.293489271111E-05  5.516675964816E-05  4.828504688941E-05  4.219784978354E-05
  3.682169471969E-05  3.208088454356E-05  2.790688351254E-05  2.423774024597E-05
  2.101754716038E-05  1.819593490557E-05  1.572760033800E-05  1.357186658383E-05
  1.169227375840E-05  1.005619892122E-05  8.634503858631E-06  7.401209300541E-06
  6.333194193465E-06  5.409918671107E-06  4.613169385366E-06  3.926825885934E-06
  3.336646765289E-06  2.830074318047E-06  2.396056499146E-06  2.024885003934E-06
  1.708048334710E-06  1.438098762202E-06  1.208532136470E-06  1.013679549426E-06
  8.486099000700E-07  7.090424633070E-07  5.912686133237E-07  4.920819026593E-07
  4.087157478773E-07  3.387880218090E-07  2.802519004032E-07  2.313523589911E-07
  1.905877580471E-07  1.566760020894E-07  1.285247970685E-07  1.052055713149E-07
  8.593066276077E-08  7.003341067468E-08  5.695082350181E-08  4.620852559689E-08
  3.740771468165E-08  3.021388879336E-08  2.434712636906E-08  1.957372599956E-08
  1.569903336635E-08  1.256130203196E-08  1.002645218372E-08  7.983607231358E-09
  6.341302432509E-09  5.024272568818E-09  3.970737222239E-09  3.130112506515E-09
  2.461087291460E-09  1.930010112379E-09  1.509540175831E-09  1.177522230318E-09
  9.160507495025E-10  7.106934047556E-10  5.439686802449E-10  4.198900452959E-10
  3.231918863401E-10  2.480472424413E-10  1.898205077427E-10  1.448345303581E-10
  1.101809805917E-10  8.356641099267E-11  6.318766732466E-11  4.763136132431E-11
  3.579300765406E-11  2.681218055769E-11  2.002067971444E-11  1.490122665945E-11
  1.105465780053E-11  8.173950521021E-12  6.023726420113E-12  4.424130188812E-12
  3.238192379228E-12  2.361956631657E-12  1.716792957582E-12  1.243433697271E-12
  8.973622351752E-13  6.452602265815E-13  4.622801264831E-13  3.299588628166E-13
  2.346277668189E-13  1.662051944439E-13  1.172831582001E-13  8.243898456442E-14
  5.771853982587E-14  4.024976075077E-14  2.795476374738E-14  1.933623596089E-14
  1.331957623225E-14  9.136708038884E-15  6.240914020569E-15  4.244668119364E-15
  2.874445452704E-15  1.938012734094E-15  1.300854001082E-15  8.692540788193E-16
  5.782128738012E-16  3.828493549381E-16  2.523150980109E-16  1.655043573389E-16
  1.080443149188E-16  7.019332541630E-17  4.538014966670E-17  2.919353952804E-17
  1.868668909031E-17  1.190081556080E-17  7.540387197194E-18  4.752875681320E-18
  2.980149701764E-18  1.858707846060E-18  1.153049329476E-18  7.114105318172E-19
  4.365157775122E-19  2.663533209906E-19  1.616090648574E-19  9.749746237236E-20
  5.848050395367E-20  3.487297044927E-20  2.067265648269E-20  1.218154105920E-20
  7.134695931833E-21  4.153213580543E-21  2.402682534630E-21  1.381273130856E-21
  0.000000000000E+00  0.000000000000E+00  0.000000000000E+00  0.000000000000E+00
  0.000000000000E+00  0.000000000000E+00  0.000000000000E+00  0.000000000000E+00
  0.000000000000E+00
</data>
</radfunc>
</valence-charge>
<pseudocore-charge matching-radius="0.656159629232"
 number-of-continuous-derivatives="4">
<annotation model-charge-form="Teter function with specified parameters" />
<radfunc>
<data npts="290">
  1.405504490561E+02  1.405330585094E+02  1.404810781351E+02  1.403943764119E+02
  1.402738715716E+02  1.401154917023E+02  1.399137557372E+02  1.396829117430E+02
  1.394235577923E+02  1.391213846645E+02  1.387811382778E+02  1.384117399436E+02
  1.379658935537E+02  1.375009457044E+02  1.369533829949E+02  1.364075287878E+02
  1.357802020512E+02  1.351867887322E+02  1.345211041216E+02  1.337747598457E+02
  1.329385048559E+02  1.321979619145E+02  1.313877300537E+02  1.305017403939E+02
  1.295334980840E+02  1.284760748177E+02  1.273221070316E+02  1.263886014863E+02
  1.253929723715E+02  1.243316518127E+02  1.232009542857E+02  1.219970875159E+02
  1.207161665349E+02  1.193542313489E+02  1.179072687037E+02  1.163712384715E+02
  1.147421052113E+02  1.130158754809E+02  1.118091784020E+02  1.105564612312E+02
  1.092566316905E+02  1.079086399135E+02  1.065114873312E+02  1.050642363080E+02
  1.035660205482E+02  1.020160562935E+02  1.004136543208E+02  9.875823274614E+01
  9.704933062867E+01  9.528662235797E+01  9.346993279703E+01  9.159925313611E+01
  8.967475739716E+01  8.769681950871E+01  8.566603084927E+01  8.358321813338E+01
  8.144946148727E+01  7.926611253195E+01  7.703481225973E+01  7.475750845603E+01
  7.243647238221E+01  7.007431439782E+01  6.767399816163E+01  6.523885301211E+01
  6.277258408985E+01  6.027927972773E+01  5.776341560168E+01  5.649852836883E+01
  5.522985510634E+01  5.395806367213E+01  5.268384539836E+01  5.140791469069E+01
  5.013100853767E+01  4.885388592569E+01  4.757732715545E+01  4.630213305574E+01
  4.502912409074E+01  4.375913935703E+01  4.249303546720E+01  4.123168531669E+01
  3.997597673143E+01  3.872681099403E+01  3.748510124667E+01  3.625177076957E+01
  3.502775113459E+01  3.381398023388E+01  3.261140018458E+01  3.142095511111E+01
  3.024358880777E+01  2.908024228486E+01  2.793185120300E+01  2.679934320106E+01
  2.568363512432E+01  2.458563016072E+01  2.350621489413E+01  2.244625628499E+01
  2.140659858980E+01  2.038806023227E+01  1.939143064050E+01  1.841746706546E+01
  1.746689139777E+01  1.654038700079E+01  1.563859557939E+01  1.476211410492E+01
  1.391149181808E+01  1.308722733218E+01  1.228976586042E+01  1.151949659134E+01
  1.077675023731E+01  1.006179678112E+01  9.374843446063E+00  8.716032914706E+00
  8.085441821132E+00  7.483079540953E+00  6.908887302252E+00  6.362737639434E+00
  5.844434210288E+00  5.353711994556E+00  4.890237889951E+00  4.453611718813E+00
  4.043367655485E+00  3.658976080977E+00  3.299845867696E+00  2.965327092792E+00
  2.654714174235E+00  2.367249418977E+00  2.102126967597E+00  1.858497114686E+00
  1.635470979018E+00  1.432125492271E+00  1.247508669891E+00  1.080645122591E+00
  9.305417621959E-01  7.961936510393E-01  6.765899401074E-01  5.707198376408E-01
  4.775785471098E-01  3.961731114428E-01  3.255280992257E-01  2.646910683947E-01
  2.127377437950E-01  1.687768469320E-01  1.319545193544E-01  1.014582854004E-01
  7.652050550121E-02  5.642127785401E-02  4.049075396967E-02  2.811084229701E-02
  1.871628367779E-02  1.179509264982E-02  6.888369388352E-03  3.589498138167E-03
  1.542759090298E-03  4.413915264125E-04  2.515640458903E-05  7.745609806337E-05
  4.220774312207E-04  9.196312037283E-04  1.463766795621E-03  1.977243978490E-03
  2.407945540640E-03  2.724913642869E-03  2.914489897485E-03  2.976634020972E-03
  2.921488644468E-03  2.766248652483E-03  2.532382517805E-03  2.243240846229E-03
  1.922074145305E-03  1.590468151086E-03  1.267191391343E-03  9.674365592212E-04
  7.024252419366E-04  4.793350912974E-04  3.015000788367E-04  1.688284106624E-04
  7.837924447912E-05  2.503868865877E-05  2.237667623636E-06  2.658960428894E-06
  1.888776686463E-05  4.396909965764E-05  7.184559951154E-05  9.766039272831E-05
  1.179206806620E-04  1.305281816307E-04  1.346916947421E-04  1.307443639453E-04
  1.198932623762E-04  1.039314308893E-04  8.494242094810E-05  6.502484316645E-05
  4.605973735900E-05  2.953725971187E-05  1.645186254885E-05  7.267535933206E-06
  1.947516009891E-06  3.681548433776E-08  7.815476591752E-07  3.266667806095E-06
  6.553594024804E-06  9.801103896133E-06  1.235661042536E-05  1.380988045837E-05
  1.400681238706E-05  1.302632012110E-05  1.112799039597E-05  8.681423864008E-06
  6.089666771108E-06  3.718767548135E-06  1.843396844127E-06  6.150437227477E-07
  5.512877762307E-08  0.000000000000E+00  0.000000000000E+00  0.000000000000E+00
  0.000000000000E+00  0.000000000000E+00  0.000000000000E+00  0.000000000000E+00
  0.000000000000E+00  0.000000000000E+00  0.000000000000E+00  0.000000000000E+00
  0.000000000000E+00  0.000000000000E+00  0.000000000000E+00  0.000000000000E+00
  0.000000000000E+00  0.000000000000E+00  0.000000000000E+00  0.000000000000E+00
  0.000000000000E+00  0.000000000000E+00  0.000000000000E+00  0.000000000000E+00
  0.000000000000E+00  0.000000000000E+00  0.000000000000E+00  0.000000000000E+00
  0.000000000000E+00  0.000000000000E+00  0.000000000000E+00  0.000000000000E+00
  0.000000000000E+00  0.000000000000E+00  0.000000000000E+00  0.000000000000E+00
  0.000000000000E+00  0.000000000000E+00  0.000000000000E+00  0.000000000000E+00
  0.000000000000E+00  0.000000000000E+00  0.000000000000E+00  0.000000000000E+00
  0.000000000000E+00  0.000000000000E+00  0.000000000000E+00  0.000000000000E+00
  0.000000000000E+00  0.000000000000E+00  0.000000000000E+00  0.000000000000E+00
  0.000000000000E+00  0.000000000000E+00  0.000000000000E+00  0.000000000000E+00
  0.000000000000E+00  0.000000000000E+00  0.000000000000E+00  0.000000000000E+00
  0.000000000000E+00  0.000000000000E+00  0.000000000000E+00  0.000000000000E+00
  0.000000000000E+00  0.000000000000E+00  0.000000000000E+00  0.000000000000E+00
  0.000000000000E+00  0.000000000000E+00  0.000000000000E+00  0.000000000000E+00
  0.000000000000E+00  0.000000000000E+00  0.000000000000E+00  0.000000000000E+00
  0.000000000000E+00  0.000000000000E+00
</data>
</radfunc>
</pseudocore-charge>
<semilocal-potentials set="scalar_relativistic">
<slps n="4" l="s" rc="1.40786919618" eref="-3.03163454406">
<radfunc>
<data npts="290">
  2.728462036605E+01  2.726121962996E+01  2.719137521285E+01  2.707521035493E+01
  2.691444426077E+01  2.670435839762E+01  2.643873178667E+01  2.613745339296E+01
  2.580232393012E+01  2.541627462844E+01  2.498716208145E+01  2.452783910511E+01
  2.398234063710E+01  2.342356178523E+01  2.277833421592E+01  2.214852968027E+01
  2.144072087872E+01  2.078640411349E+01  2.006940492205E+01  1.928613119809E+01
  1.843332923357E+01  1.769914200467E+01  1.691752995104E+01  1.608766610848E+01
  1.520908877639E+01  1.428175522105E+01  1.330609302051E+01  1.254317838264E+01
  1.175420149922E+01  1.093994916418E+01  1.010139798473E+01  9.239717800569E+00
  8.356272577679E+00  7.452618559272E+00  6.530499515741E+00  5.591839007050E+00
  4.638729652684E+00  3.673419493395E+00  3.024274804477E+00  2.371503798814E+00
  1.715865354155E+00  1.058136533262E+00  3.991095707369E-01 -2.604112421119E-01
 -9.196127418379E-01 -1.577676112886E+00 -2.233780107991E+00 -2.887104233427E+00
 -3.536831863646E+00 -4.182153250452E+00 -4.822268393064E+00 -5.456389737053E+00
 -6.083744672318E+00 -6.703577802807E+00 -7.315152963645E+00 -7.917754964548E+00
 -8.510691041864E+00 -9.093292005300E+00 -9.664913069055E+00 -1.022493436104E+01
 -1.077276110764E+01 -1.130782349530E+01 -1.182957621423E+01 -1.233749769299E+01
 -1.283108903681E+01 -1.330987268636E+01 -1.377339081670E+01 -1.399928719074E+01
 -1.422120350207E+01 -1.443908722171E+01 -1.465288667443E+01 -1.486255096620E+01
 -1.506802990978E+01 -1.526927394892E+01 -1.546623408163E+01 -1.565886178279E+01
 -1.584710892677E+01 -1.603092771034E+01 -1.621027057661E+01 -1.638509014042E+01
 -1.655533911599E+01 -1.672097024735E+01 -1.688193624247E+01 -1.703818971178E+01
 -1.718968311210E+01 -1.733636869678E+01 -1.747819847325E+01 -1.761512416899E+01
 -1.774709720718E+01 -1.787406869316E+01 -1.799598941313E+01 -1.811280984637E+01
 -1.822448019223E+01 -1.833095041342E+01 -1.843217029660E+01 -1.852808953159E+01
 -1.861865780998E+01 -1.870382494397E+01 -1.878354100557E+01 -1.885775648636E+01
 -1.892642247696E+01 -1.898949086530E+01 -1.904691455176E+01 -1.909864767905E+01
 -1.914464587366E+01 -1.918486649559E+01 -1.921926889231E+01 -1.924781465307E+01
 -1.927046785940E+01 -1.928719532806E+01 -1.929796684347E+01 -1.930275537739E+01
 -1.930153729498E+01 -1.929429254778E+01 -1.928100485578E+01 -1.926166188208E+01
 -1.923625540549E+01 -1.920478149703E+01 -1.916724070748E+01 -1.912363827292E+01
 -1.907398434515E+01 -1.901829425282E+01 -1.895658879755E+01 -1.888889458773E+01
 -1.881524441028E+01 -1.873567763848E+01 -1.865024067181E+01 -1.855898740136E+01
 -1.846197969307E+01 -1.835928787922E+01 -1.825099124785E+01 -1.813717851967E+01
 -1.801794830178E+01 -1.789340950844E+01 -1.776368174032E+01 -1.762889561518E+01
 -1.748919304484E+01 -1.734472745561E+01 -1.719566395163E+01 -1.704217942305E+01
 -1.688446260343E+01 -1.672271408314E+01 -1.655714628803E+01 -1.638798343498E+01
 -1.621546147850E+01 -1.603982806539E+01 -1.586134251722E+01 -1.568027586442E+01
 -1.549691095926E+01 -1.531154270037E+01 -1.512447840623E+01 -1.493603838126E+01