<?xml version="1.0" encoding="UTF-8" ?>
<psml version="1.1" energy_unit="hartree" length_unit="bohr"
 uuid="65583570-be45-11e7-7eaa-3a1ae6ef8988"
 xmlns="http://esl.cecam.org/PSML/ns/1.1">
<provenance creator="ONCVPSP-3.3.0+psml-3.3.0-73 (scalar-relativistic)"
 date="2017-10-31">
<annotation action="semilocal-pseudopotential-generation"
 action-cont="projectors-generation" />
<input-file name="oncvpsp-input">
<![CDATA[# atsym z nc nv iexc psfile
I 53 9 2 4 upf
# n l f
1 0 2.0
2 0 2.0
2 1 6.0
3 0 2.0
3 1 6.0
3 2 10.0
4 0 2.0
4 1 6.0
4 2 10.0
5 0 2.0
5 1 5.0
# lmax
2
# l rc ep ncon nbas qcut
0 2.0 0.0 4 7 3.7
1 2.15 0.0 4 7 4.0
2 2.25 0.1 4 8 4.6
# lloc lpopt rc5 dvloc0
4 5 2.0 0.0
# l nproj debl
0 2 2.2
1 2 2.5
2 2 3.0
# icmod fcfact
3 4 1.34
# epsh1 epsh2 depsh
-12.0 12.0 0.02
# rlmax drl
6.0 0.01
 0
]]>
</input-file>
</provenance>
<pseudo-atom-spec atomic-label="I" atomic-number="53" z-pseudo="7"
 flavor="Hamann&apos;s oncvpsp" relativity="scalar" spin-dft="no"
 core-corrections="yes">
<annotation pseudo-energy="-11.5693893795" />
<exchange-correlation>
<annotation oncvpsp-xc-code="4" oncvpsp-xc-type="GGA -- Perdew-Burke-Ernzerhof" />
<libxc-info number-of-functionals="2">
<functional name="Perdew, Burke &amp; Ernzerhof (GGA)" type="exchange" id="101" />
<functional name="Perdew, Burke &amp; Ernzerhof (GGA)" type="correlation"
 id="130" />
</libxc-info>
</exchange-correlation>
<valence-configuration total-valence-charge="7">
<shell n="5" l="s" occupation="2" />
<shell n="5" l="p" occupation="5" />
</valence-configuration>
</pseudo-atom-spec>
<grid npts="458">
<annotation type="sampled from oncvpsp log grid"
 recipe="r(i:1..N) = r1*exp(a*(i-1)) + r=0; resampled"
 recipe-cont="r1: scale; a: step" scale="0.943396226415E-05"
 step="0.119285708653E-01" delta="0.500000000000E-02" rmax="44.3807093700" />
<grid-data>
  0.000000000000E+00  5.007762362137E-03  1.012264367117E-02  1.518557966799E-02
  2.021918633661E-02  2.536257896747E-02  3.069598770929E-02  3.584497442415E-02
  4.087087281817E-02  4.604887635970E-02  5.126767823703E-02  5.640112283188E-02
  6.204858043287E-02  6.745209415252E-02  7.245669368045E-02  7.783260883245E-02
  8.360738932391E-02  8.874568074888E-02  9.419975812269E-02  9.998902882364E-02
  1.061340929567E-01  1.113209650746E-01  1.167613244709E-01  1.224675593053E-01
  1.284526631584E-01  1.347302646194E-01  1.413146583191E-01  1.464632781427E-01
  1.517994813805E-01  1.573301023957E-01  1.630622245526E-01  1.690031892890E-01
  1.751606055187E-01  1.815423593765E-01  1.881566243185E-01  1.950118715903E-01
  2.021168810766E-01  2.094807525460E-01  2.145384558354E-01  2.197182723131E-01
  2.250231502799E-01  2.304561092202E-01  2.360202415212E-01  2.417187142325E-01
  2.475547708689E-01  2.535317332568E-01  2.596530034246E-01  2.659220655392E-01
  2.723424878896E-01  2.789179249172E-01  2.856521192964E-01  2.925489040647E-01
  2.996122048045E-01  3.068460418773E-01  3.142545327123E-01  3.218418941502E-01
  3.296124448425E-01  3.375706077108E-01  3.457209124634E-01  3.540679981739E-01
  3.626166159218E-01  3.713716314966E-01  3.803380281675E-01  3.895209095195E-01
  3.989255023590E-01  4.085571596879E-01  4.184213637514E-01  4.234424201164E-01
  4.285237291578E-01  4.336660139077E-01  4.388700060746E-01  4.441364461475E-01
  4.494660835013E-01  4.548596765033E-01  4.603179926214E-01  4.658418085328E-01
  4.714319102352E-01  4.770890931580E-01  4.828141622759E-01  4.886079322232E-01
  4.944712274099E-01  5.004048821388E-01  5.064097407245E-01  5.124866576132E-01
  5.186364975046E-01  5.248601354746E-01  5.311584571003E-01  5.375323585855E-01
  5.439827468885E-01  5.505105398512E-01  5.571166663294E-01  5.638020663254E-01
  5.705676911213E-01  5.774145034147E-01  5.843434774557E-01  5.913555991852E-01
  5.984518663754E-01  6.056332887719E-01  6.129008882372E-01  6.202556988960E-01
  6.276987672828E-01  6.352311524901E-01  6.428539263200E-01  6.505681734359E-01
  6.583749915171E-01  6.662754914153E-01  6.742707973123E-01  6.823620468800E-01
  6.905503914426E-01  6.988369961399E-01  7.072230400936E-01  7.157097165747E-01
  7.242982331736E-01  7.329898119717E-01  7.417856897153E-01  7.506871179919E-01
  7.596953634078E-01  7.688117077687E-01  7.780374482620E-01  7.873738976411E-01
  7.968223844128E-01  8.063842530257E-01  8.160608640621E-01  8.258535944308E-01
  8.357638375640E-01  8.457930036147E-01  8.559425196581E-01  8.662138298940E-01
  8.766083958527E-01  8.871276966030E-01  8.977732289622E-01  9.085465077098E-01
  9.194490658023E-01  9.304824545919E-01  9.416482440470E-01  9.529480229756E-01
  9.643833992513E-01  9.759560000423E-01  9.876674720428E-01  9.995194817073E-01
  1.011513715488E+00  1.023651880074E+00  1.035935702635E+00  1.048366931066E+00
  1.060947334239E+00  1.073678702250E+00  1.086562846677E+00  1.099601600837E+00
  1.112796820047E+00  1.126150381888E+00  1.139664186470E+00  1.153340156708E+00
  1.167180238588E+00  1.181186401451E+00  1.195360638269E+00  1.209704965928E+00
  1.224221425519E+00  1.238912082625E+00  1.253779027617E+00  1.268824375948E+00
  1.284050268460E+00  1.299458871681E+00  1.315052378141E+00  1.330833006679E+00
  1.346803002759E+00  1.362964638792E+00  1.379320214458E+00  1.395872057031E+00
  1.412622521716E+00  1.429573991976E+00  1.446728879880E+00  1.464089626439E+00
  1.481658701956E+00  1.499438606379E+00  1.517431869656E+00  1.535641052092E+00
  1.554068744717E+00  1.572717569653E+00  1.591590180489E+00  1.610689262655E+00
  1.630017533807E+00  1.649577744213E+00  1.669372677143E+00  1.689405149269E+00
  1.709678011060E+00  1.730194147193E+00  1.750956476959E+00  1.771967954683E+00
  1.793231570139E+00  1.814750348981E+00  1.836527353168E+00  1.858565681406E+00
  1.880868469583E+00  1.903438891218E+00  1.926280157913E+00  1.949395519808E+00
  1.972788266046E+00  1.996461725238E+00  2.020419265941E+00  2.044664297132E+00
  2.069200268698E+00  2.094030671922E+00  2.119159039985E+00  2.144588948465E+00
  2.170324015847E+00  2.196367904037E+00  2.222724318885E+00  2.249397010712E+00
  2.276389774840E+00  2.303706452138E+00  2.331350929564E+00  2.359327140719E+00
  2.387639066408E+00  2.416290735204E+00  2.445286224027E+00  2.474629658715E+00
  2.504325214620E+00  2.534377117195E+00  2.564789642602E+00  2.595567118313E+00
  2.626713923733E+00  2.658234490817E+00  2.690133304707E+00  2.722414904364E+00
  2.755083883216E+00  2.788144889815E+00  2.821602628492E+00  2.855461860034E+00
  2.889727402355E+00  2.924404131183E+00  2.959496980757E+00  2.995010944526E+00
  3.030951075861E+00  3.067322488771E+00  3.104130358636E+00  3.141379922940E+00
  3.179076482015E+00  3.217225399799E+00  3.255832104597E+00  3.294902089852E+00
  3.334440914930E+00  3.374454205909E+00  3.414947656380E+00  3.455927028257E+00
  3.497398152596E+00  3.539366930427E+00  3.581839333592E+00  3.624821405595E+00
  3.668319262462E+00  3.712339093612E+00  3.756887162735E+00  3.801969808688E+00
  3.847593446392E+00  3.893764567749E+00  3.940489742562E+00  3.987775619473E+00
  4.035628926907E+00  4.084056474029E+00  4.133065151718E+00  4.182661933538E+00
  4.232853876741E+00  4.283648123262E+00  4.335051900741E+00  4.387072523550E+00
  4.439717393832E+00  4.492994002558E+00  4.546909930589E+00  4.601472849756E+00
  4.656690523953E+00  4.712570810241E+00  4.769121659963E+00  4.826351119883E+00
  4.884267333322E+00  4.942878541322E+00  5.002193083817E+00  5.062219400823E+00
  5.122966033633E+00  5.184441626037E+00  5.246654925549E+00  5.309614784656E+00
  5.373330162072E+00  5.437810124016E+00  5.503063845505E+00  5.569100611651E+00
  5.635929818990E+00  5.703560976818E+00  5.772003708540E+00  5.841267753043E+00
  5.911362966079E+00  5.982299321672E+00  6.054086913532E+00  6.126735956495E+00
  6.200256787972E+00  6.274659869428E+00  6.349955787861E+00  6.426155257316E+00
  6.503269120403E+00  6.581308349848E+00  6.660284050046E+00  6.740207458647E+00
  6.821089948151E+00  6.902943027529E+00  6.985778343859E+00  7.069607683985E+00
  7.154442976193E+00  7.240296291907E+00  7.327179847410E+00  7.415106005579E+00
  7.504087277646E+00  7.594136324978E+00  7.685265960878E+00  7.777489152408E+00
  7.870819022237E+00  7.965268850504E+00  8.060852076710E+00  8.157582301630E+00
  8.255473289250E+00  8.354538968721E+00  8.454793436346E+00  8.556250957582E+00
  8.658925969073E+00  8.762833080702E+00  8.867987077670E+00  8.974402922602E+00
  9.082095757673E+00  9.191080906765E+00  9.301373877647E+00  9.412990364178E+00
  9.525946248549E+00  9.640257603531E+00  9.755940694773E+00  9.873011983111E+00
  9.991488126908E+00  1.011138598443E+01  1.023272261624E+01  1.035551528764E+01
  1.047978147109E+01  1.060553884874E+01  1.073280531493E+01  1.086159897871E+01
  1.099193816645E+01  1.112384142445E+01  1.125732752154E+01  1.139241545180E+01
  1.152912443722E+01  1.166747393047E+01  1.180748361764E+01  1.194917342105E+01
  1.209256350210E+01  1.223767426413E+01  1.238452635529E+01  1.253314067156E+01
  1.268353835962E+01  1.283574081993E+01  1.298976970977E+01  1.314564694629E+01
  1.330339470964E+01  1.346303544616E+01  1.362459187151E+01  1.378808697397E+01
  1.395354401766E+01  1.412098654587E+01  1.429043838442E+01  1.446192364504E+01
  1.463546672878E+01  1.481109232952E+01  1.498882543748E+01  1.516869134272E+01
  1.535071563884E+01  1.553492422650E+01  1.572134331722E+01  1.590999943703E+01
  1.610091943027E+01  1.629413046344E+01  1.648966002900E+01  1.668753594935E+01
  1.688778638074E+01  1.709043981731E+01  1.729552509511E+01  1.750307139626E+01
  1.771310825301E+01  1.792566555205E+01  1.814077353867E+01  1.835846282113E+01
  1.857876437499E+01  1.880170954749E+01  1.902733006206E+01  1.925565802280E+01
  1.948672591908E+01  1.972056663011E+01  1.995721342967E+01  2.019669999082E+01
  2.043906039071E+01  2.068432911540E+01  2.093254106479E+01  2.118373155756E+01
  2.143793633625E+01  2.169519157229E+01  2.195553387116E+01  2.221900027761E+01
  2.248562828094E+01  2.275545582031E+01  2.302852129016E+01  2.330486354564E+01
  2.358452190819E+01  2.386753617108E+01  2.415394660514E+01  2.444379396440E+01
  2.473711949197E+01  2.503396492588E+01  2.533437250499E+01  2.563838497505E+01
  2.594604559475E+01  2.625739814188E+01  2.657248691959E+01  2.689135676262E+01
  2.721405304377E+01  2.754062168030E+01  2.787110914046E+01  2.820556245015E+01
  2.854402919955E+01  2.888655754994E+01  2.923319624054E+01  2.958399459543E+01
  2.993900253057E+01  3.029827056094E+01  3.066184980767E+01  3.102979200536E+01
  3.140214950943E+01  3.177897530354E+01  3.216032300718E+01  3.254624688327E+01
  3.293680184587E+01  3.333204346802E+01  3.373202798964E+01  3.413681232551E+01
  3.454645407342E+01  3.496101152230E+01  3.538054366057E+01  3.580511018449E+01
  3.623477150671E+01  3.666958876479E+01  3.710962382997E+01  3.755493931593E+01
  3.800559858772E+01  3.846166577077E+01  3.892320576002E+01  3.939028422914E+01
  3.986296763989E+01  4.034132325157E+01  4.082541913059E+01  4.131532416015E+01
  4.181110805007E+01  4.231284134668E+01  4.282059544284E+01  4.333444258815E+01
  4.385445589921E+01  4.438070937000E+01
</grid-data>
</grid>
<valence-charge total-charge="7" is-unscreening-charge="yes"
 rescaled-to-z-pseudo="no">
<radfunc>
<data npts="458">
  1.203686560182E-02  1.204958960329E-02  1.208886794970E-02  1.215393995551E-02
  1.224452628255E-02  1.236383955098E-02  1.251623539203E-02  1.269119994934E-02
  1.288851347822E-02  1.311939452505E-02  1.338064763747E-02  1.366582777931E-02
  1.401217644555E-02  1.437588131797E-02  1.474123499497E-02  1.516457882443E-02
  1.565540971602E-02  1.612396995758E-02  1.665456822186E-02  1.725576315175E-02
  1.793737677291E-02  1.854810064439E-02  1.922404039206E-02  1.997254113274E-02
  2.080184208130E-02  2.172119536468E-02  2.274100161486E-02  2.357876531275E-02
  2.448506167222E-02  2.546587984390E-02  2.652777496043E-02  2.767792489807E-02
  2.892419265910E-02  3.027519482804E-02  3.174037655814E-02  3.333009353807E-02
  3.505570136818E-02  3.692965273799E-02  3.826805712728E-02  3.968279982940E-02
  4.117852254203E-02  4.276015933185E-02  4.443295402877E-02  4.620247834567E-02
  4.807465069790E-02  5.005575568478E-02  5.215246418213E-02  5.437185397959E-02
  5.672143087920E-02  5.920915015252E-02  6.184343823208E-02  6.463321448944E-02
  6.758791292610E-02  7.071750357592E-02  7.403251338738E-02  7.754404632265E-02
  8.126380237672E-02  8.520409518614E-02  8.937786786167E-02  9.379870664499E-02
  9.848085195619E-02  1.034392063680E-01  1.086893390153E-01  1.142474859269E-01
  1.201305457509E-01  1.263560703408E-01  1.329422496734E-01  1.363764386259E-01
  1.399078905912E-01  1.435390482327E-01  1.472723888959E-01  1.511104233445E-01
  1.550556943777E-01  1.591107753278E-01  1.632782684377E-01  1.675608031149E-01
  1.719610340659E-01  1.764816393071E-01  1.811253180581E-01  1.858947885152E-01
  1.907927855109E-01  1.958220580615E-01  2.009853668082E-01  2.062854813563E-01
  2.117251775191E-01  2.173072344748E-01  2.230344318427E-01  2.289095466901E-01
  2.349353504778E-01  2.411146059568E-01  2.474500640277E-01  2.539444605737E-01
  2.606005132829E-01  2.674209184709E-01  2.744083479187E-01  2.815654457398E-01
  2.888948252893E-01  2.963990661287E-01  3.040807110576E-01  3.119422632250E-01
  3.199861833272E-01  3.282148869000E-01  3.366307417101E-01  3.452360652442E-01
  3.540331222936E-01  3.630241226250E-01  3.722112187219E-01  3.815965035765E-01
  3.911820085013E-01  4.009697009224E-01  4.109614821062E-01  4.211591847587E-01
  4.315645704268E-01  4.421793266122E-01  4.530050634998E-01  4.640433101787E-01
  4.752955102234E-01  4.867630164762E-01  4.984470848576E-01  5.103488670056E-01
  5.224694015247E-01  5.348096035998E-01  5.473702527085E-01  5.601519781391E-01
  5.731552419982E-01  5.863803193671E-01  5.998272752461E-01  6.134959379009E-01
  6.273858682099E-01  6.414963245947E-01  6.558262231038E-01  6.703740922149E-01
  6.851380219214E-01  7.001156066739E-01  7.153038817690E-01  7.306992527998E-01
  7.462974178272E-01  7.620932819797E-01  7.780808642619E-01  7.942531964368E-01
  8.106022139512E-01  8.271186390021E-01  8.437918559884E-01  8.606097797664E-01
  8.775587173216E-01  8.946232236967E-01  9.117859532594E-01  9.290275076699E-01
  9.463262822068E-01  9.636583124272E-01  9.809971234795E-01  9.983135847389E-01
  1.015575772800E+00  1.032748846226E+00  1.049794935808E+00  1.066673054442E+00
  1.083339031021E+00  1.099745473027E+00  1.115841762712E+00  1.131574091882E+00
  1.146885540343E+00  1.161716203005E+00  1.176003370402E+00  1.189681767071E+00
  1.202683851652E+00  1.214940181921E+00  1.226379846995E+00  1.236930967866E+00
  1.246521266100E+00  1.255078698982E+00  1.262532157678E+00  1.268812223116E+00
  1.273851972203E+00  1.277587824945E+00  1.279960420798E+00  1.280915510500E+00
  1.280404847567E+00  1.278387061790E+00  1.274828495505E+00  1.269703982221E+00
  1.262997546456E+00  1.254703003463E+00  1.244824438040E+00  1.233376542786E+00
  1.220384798132E+00  1.205885479220E+00  1.189925478205E+00  1.172561934810E+00
  1.153861672879E+00  1.133900446090E+00  1.112762001872E+00  1.090536978610E+00
  1.067321657298E+00  1.043216594649E+00  1.018325170106E+00  9.927520838721E-01
  9.666018469241E-01  9.399773066149E-01  9.129782528536E-01  8.857003175333E-01
  8.582347154220E-01  8.306684680409E-01  8.030836778976E-01  7.755564990298E-01
  7.481566177392E-01  7.209470460599E-01  6.939850944648E-01  6.673240085984E-01
  6.410132638769E-01  6.150982865299E-01  5.896206276459E-01  5.646179973683E-01
  5.401243393412E-01  5.161699177025E-01  4.927814172450E-01  4.699820553249E-01
  4.477917039228E-01  4.262270206417E-01  4.053015870170E-01  3.850260528919E-01
  3.654082855451E-01  3.464535223317E-01  3.281645256734E-01  3.105417393039E-01
  2.935834447522E-01  2.772859171256E-01  2.616435793345E-01  2.466491539822E-01
  2.322938122256E-01  2.185673189896E-01  2.054581740018E-01  1.929537481864E-01
  1.810404150312E-01  1.697036766135E-01  1.589282840356E-01  1.486983520792E-01
  1.389974679505E-01  1.298087940368E-01  1.211151646424E-01  1.128991767121E-01
  1.051432745880E-01  9.782982887384E-02  9.094120950909E-02  8.445985317384E-02
  7.836832516391E-02  7.264937588789E-02  6.728599214819E-02  6.226144337593E-02
  5.755932299523E-02  5.316358509681E-02  4.905857660490E-02  4.522906512441E-02
  4.166026265887E-02  3.833784539274E-02  3.524796973527E-02  3.237728482682E-02
  2.971294171186E-02  2.724259938671E-02  2.495442793281E-02  2.283710894906E-02
  2.087983349808E-02  1.907229778212E-02  1.740469676338E-02  1.586771594162E-02
  1.445252149866E-02  1.315074901430E-02  1.195449095216E-02  1.085628310634E-02
  9.849090191221E-03  8.926290746992E-03  8.081661522796E-03  7.309361488358E-03
  6.603915613053E-03  5.960198539362E-03  5.373418265454E-03  4.839099939417E-03
  4.353069855660E-03  3.911439732238E-03  3.510591336551E-03  3.147161516059E-03
  2.818027680464E-03  2.520293772235E-03  2.251276753622E-03  2.008493630202E-03
  1.789649023825E-03  1.592623301364E-03  1.415461260103E-03  1.256361365733E-03
  1.113665534928E-03  9.858494511258E-04  8.715133994976E-04  7.693736051016E-04
  6.782540567213E-04  5.970787979425E-04  5.248646664563E-04  4.607144623728E-04
  4.038105263994E-04  3.534087090325E-04  3.088327123569E-04  2.694687866105E-04
  2.347607643007E-04  2.042054153192E-04  1.773481071720E-04  1.537787550933E-04
  1.331280474396E-04  1.150639323486E-04  9.928835219765E-05  8.553421290233E-05
  7.356257556857E-05  6.316005844415E-05  5.413643752298E-05  4.632243453809E-05
  3.956768144478E-05  3.373885084890E-05  2.871794218219E-05  2.440071377048E-05
  2.069525128527E-05  1.752066341685E-05  1.480589595959E-05  1.248865585768E-05
  1.051443712292E-05  8.835640904586E-06  7.410782363419E-06  6.203777376962E-06
  5.183302479037E-06  4.322221811199E-06  3.597075236012E-06  2.987622129388E-06
  2.476435729875E-06  2.048543275191E-06  1.691107498591E-06  1.393145388627E-06
  1.145280434125E-06  9.395248808206E-07  7.690888162256E-07  6.282131743420E-07
  5.120240113864E-07  4.164056475530E-07  3.378904979583E-07  2.735636284039E-07
  2.209802687290E-07  1.780946986708E-07  1.431990887859E-07  1.148710326840E-07
  9.192864720083E-08  7.339224487805E-08  5.845169894081E-08  4.643872559641E-08
  3.680340267555E-08  2.909432814174E-08  2.294189754324E-08  1.804424679358E-08
  1.415546643776E-08  1.107574645849E-08  8.643157335766E-09  6.726814093110E-09
  5.221206008833E-09  4.041506065000E-09  3.119701537564E-09  2.401410847108E-09
  1.843272302011E-09  1.410808049994E-09  1.076681750489E-09  8.192814966689E-10
  6.215706288582E-10  4.701585379783E-10  3.545515790878E-10  2.665509966944E-10
  1.997704780766E-10  1.492507504045E-10  1.111526551246E-10  8.251348505596E-11
  6.105415684689E-11  4.502710122318E-11  3.309666109128E-11  2.424535768307E-11
  1.770067280318E-11  1.287804794124E-11  9.336658473934E-12  6.745217153552E-12
  4.855623966586E-12  3.482733063627E-12  2.488871699283E-12  1.772037520846E-12
  1.256932813053E-12  8.881787533709E-13  6.251986529267E-13  4.383741615289E-13
  3.061687041762E-13  2.129830274978E-13  1.475627402166E-13  1.018204112581E-13
  6.996777229170E-14  4.787895815295E-14  3.262517852169E-14  2.213606944349E-14
  1.495426602157E-14  1.005828594946E-14  6.735256825616E-15  4.489855806079E-15
  2.979443388387E-15  1.968061059331E-15  1.293953204440E-15  8.467412884998E-16
  5.514553642023E-16  3.574147350785E-16  2.305216363941E-16  1.479457423574E-16
  9.447542775551E-17  6.002534077858E-17  3.794226074710E-17  2.385929996218E-17
  1.492487876100E-17  9.286564043543E-18  5.747284382482E-18  3.537573747970E-18
  2.165483576695E-18  1.318201675429E-18  7.979156090688E-19  4.802310841856E-19
  2.873632637355E-19  1.709497972140E-19  1.010950665433E-19  5.942667183141E-20
  0.000000000000E+00  0.000000000000E+00  0.000000000000E+00  0.000000000000E+00
  0.000000000000E+00  0.000000000000E+00  0.000000000000E+00  0.000000000000E+00
  0.000000000000E+00  0.000000000000E+00  0.000000000000E+00  0.000000000000E+00
  0.000000000000E+00  0.000000000000E+00  0.000000000000E+00  0.000000000000E+00
  0.000000000000E+00  0.000000000000E+00  0.000000000000E+00  0.000000000000E+00
  0.000000000000E+00  0.000000000000E+00  0.000000000000E+00  0.000000000000E+00
  0.000000000000E+00  0.000000000000E+00  0.000000000000E+00  0.000000000000E+00
  0.000000000000E+00  0.000000000000E+00  0.000000000000E+00  0.000000000000E+00
  0.000000000000E+00  0.000000000000E+00
</data>
</radfunc>
</valence-charge>
<pseudocore-charge matching-radius="1.51743186966"
 number-of-continuous-derivatives="4">
<annotation model-charge-form="Teter function with specified parameters" />
<radfunc>
<data npts="291">
  5.146692676384E+00  5.146594048811E+00  5.146289693317E+00  5.145785813270E+00
  5.145085073985E+00  5.144163368534E+00  5.142988159010E+00  5.141641742003E+00
  5.140126945229E+00  5.138359253503E+00  5.136365211113E+00  5.134195955235E+00
  5.131571681563E+00  5.128827848171E+00  5.126083708645E+00  5.122918969372E+00
  5.119269467418E+00  5.115804954684E+00  5.111904147142E+00  5.107512476318E+00
  5.102568649746E+00  5.098170065928E+00  5.093335152644E+00  5.088021078516E+00
  5.082180902589E+00  5.075763200051E+00  5.068711658163E+00  5.062970179927E+00
  5.056809497890E+00  5.050199544983E+00  5.043108180701E+00  5.035501061021E+00
  5.027341502191E+00  5.018590338490E+00  5.009205774078E+00  4.999143229183E+00
  4.988355180974E+00  4.976790999609E+00  4.968623880459E+00  4.960071110618E+00
  4.951115170681E+00  4.941737814573E+00  4.931920046494E+00  4.921642097898E+00
  4.910883404619E+00  4.899622584273E+00  4.887837414063E+00  4.875504809148E+00
  4.862600801740E+00  4.849100521132E+00  4.834978174859E+00  4.820207031235E+00
  4.804759403528E+00  4.788606636062E+00  4.771719092562E+00  4.754066147095E+00
  4.735616177992E+00  4.716336565164E+00  4.696193691285E+00  4.675152947318E+00
  4.653178742948E+00  4.630234522495E+00  4.606282786943E+00  4.581285122774E+00
  4.555202238327E+00  4.527994008491E+00  4.499619528543E+00  4.484981964381E+00
  4.470037178051E+00  4.454779867456E+00  4.439204695777E+00  4.423306294489E+00
  4.407079266585E+00  4.390518190025E+00  4.373617621410E+00  4.356372099905E+00
  4.338776151396E+00  4.320824292919E+00  4.302511037349E+00  4.283830898364E+00
  4.264778395706E+00  4.245348060725E+00  4.225534442245E+00  4.205332112730E+00
  4.184735674794E+00  4.163739768033E+00  4.142339076214E+00  4.120528334814E+00
  4.098302338928E+00  4.075655951556E+00  4.052584112269E+00  4.029081846273E+00
  4.005144273878E+00  3.980766620376E+00  3.955944226338E+00  3.930672558345E+00
  3.904947220145E+00  3.878763964257E+00  3.852118704021E+00  3.825007526096E+00
  3.797426703421E+00  3.769372708625E+00  3.740842227909E+00  3.711832175380E+00
  3.682339707852E+00  3.652362240107E+00  3.621897460605E+00  3.590943347656E+00
  3.559498186025E+00  3.527560583981E+00  3.495129490766E+00  3.462204214475E+00
  3.428784440337E+00  3.394870249364E+00  3.360462137369E+00  3.325561034310E+00
  3.290168323939E+00  3.254285863733E+00  3.217916005064E+00  3.181061613580E+00
  3.143726089743E+00  3.105913389493E+00  3.067628044983E+00  3.028875185332E+00
  2.989660557332E+00  2.949990546062E+00  2.909872195324E+00  2.869313227839E+00
  2.828322065123E+00  2.786907846960E+00  2.745080450385E+00  2.702850508075E+00
  2.660229426066E+00  2.617229400671E+00  2.573863434504E+00  2.530145351486E+00
  2.486089810715E+00  2.441712319069E+00  2.397029242411E+00  2.352057815268E+00
  2.306816148820E+00  2.261323237082E+00  2.215598961092E+00  2.169664090991E+00
  2.123540285796E+00  2.077250090742E+00  2.030816931999E+00  1.984265108622E+00
  1.937619781562E+00  1.890906959568E+00  1.844153481831E+00  1.797386997194E+00
  1.750635939785E+00  1.703929500923E+00  1.657297597135E+00  1.610770834177E+00
  1.564380466904E+00  1.518158354900E+00  1.472136913753E+00  1.426349061890E+00
  1.380828162919E+00  1.335607963413E+00  1.290722526125E+00  1.246206158628E+00
  1.202093337401E+00  1.158418627431E+00  1.115216597400E+00  1.072521730592E+00
  1.030368331666E+00  9.887904294970E-01  9.478216763203E-01  9.074952434470E-01
  8.678437138858E-01  8.288989722292E-01  7.906920922215E-01  7.532532224712E-01
  7.166114708166E-01  6.807947879051E-01  6.458298505928E-01  6.117419458193E-01
  5.785548556574E-01  5.462907442824E-01  5.149700476461E-01  4.846113666776E-01
  4.552313648649E-01  4.268446711028E-01  3.994637887094E-01  3.730990115316E-01
  3.477583480664E-01  3.234474545212E-01  3.001695777276E-01  2.779255087989E-01
  2.567135483905E-01  2.365294843745E-01  2.173665826859E-01  1.992155920235E-01
  1.820647630064E-01  1.658998822879E-01  1.507043220176E-01  1.364591049169E-01
  1.231429850952E-01  1.107325445822E-01  9.920230539200E-02  8.852485676038E-02
  7.867099701725E-02  6.960988936980E-02  6.130923067982E-02  5.373543212690E-02
  4.685381045763E-02  4.062878833472E-02  3.502410212138E-02  3.000301526993E-02
  2.552853533275E-02  2.156363248265E-02  1.807145732234E-02  1.501555568282E-02
  1.236007806194E-02  1.006998134076E-02  8.111220439048E-03  6.450927635658E-03
  5.057577385597E-03  3.901134614907E-03  2.953184666974E-03  2.187043308515E-03
  1.577845478502E-03  1.102611775213E-03  7.402920212769E-04  4.717856180850E-04
  2.799387926811E-04  1.495192440270E-04  6.716910251946E-05  2.133751694810E-05
  2.194566321634E-06  1.528549430697E-06  1.262902189453E-05  3.015821837447E-05
  5.001370697903E-05  6.918526514457E-05  8.560903453316E-05  9.802200179644E-05
  1.058197597976E-04  1.089203300948E-04  1.076365750775E-04  1.025594030274E-04
  9.445358049146E-05  8.416752553266E-05  7.255797713769E-05  6.042993696188E-05
  4.849177797385E-05  3.732492961978E-05  2.736710013273E-05  1.890760199859E-05
  1.209302298226E-05  6.941246384711E-06  3.361680562333E-06  1.179515004805E-06
  1.618792642447E-07  4.393728170887E-08  5.531933621739E-07  1.430602381358E-06
  2.447446578041E-06  3.417341936961E-06  4.203144075355E-06  4.718911558499E-06
  4.927429694696E-06  4.834078987495E-06  4.478032942629E-06  3.921879106475E-06
  3.240771192086E-06  2.512142436071E-06  1.806851703636E-06  1.182411638119E-06
  6.786848374918E-07  3.161554159351E-07  9.661612366354E-08  5.880646200641E-09
  1.795792984223E-08  1.000252838534E-07  2.175166136241E-07  3.386997347788E-07
  4.382419608397E-07  4.994381568111E-07  5.149768087834E-07  4.863212574051E-07
  4.219594870590E-07  3.349049830020E-07  2.398981342372E-07  1.507562758429E-07
  7.825430107287E-08  2.879971065450E-08  4.016334596220E-09
</data>
</radfunc>
</pseudocore-charge>
<semilocal-potentials set="scalar_relativistic">
<slps n="5" l="s" rc="2.02041926594" eref="-0.639713175237">
<radfunc>
<data npts="291">
  2.710868593902E+01  2.709803139377E+01  2.706519003127E+01  2.701094355931E+01
  2.693576071075E+01  2.683732285699E+01  2.671255099817E+01  2.657061218175E+01
  2.641219813538E+01  2.622902281086E+01  2.602454055245E+01  2.580463631719E+01
  2.554208711976E+01  2.527157174387E+01  2.500502422968E+01  2.470247510406E+01
  2.435987700553E+01  2.404071912536E+01  2.368825239111E+01  2.329990106286E+01
  2.287310429877E+01  2.250231059439E+01  2.210410679211E+01  2.167736810661E+01
  2.122108536290E+01  2.073439770604E+01  2.021662767948E+01  1.980761794306E+01
  1.938076240708E+01  1.893605211482E+01  1.847357733555E+01  1.799353587718E+01
  1.749624079023E+01  1.698212724407E+01  1.645175835052E+01  1.590582971032E+01
  1.534517246683E+01  1.477075466822E+01  1.438070457256E+01  1.398538725261E+01
  1.358518910885E+01  1.318052172499E+01  1.277182093300E+01  1.235954569047E+01
  1.194417677388E+01  1.152621529358E+01  1.110618103865E+01  1.068461066206E+01
  1.026205571861E+01  9.839080570130E+00  9.416260173910E+00  8.994177772089E+00
  8.573422500410E+00  8.154586935776E+00  7.738264602221E+00  7.325047454900E+00
  6.915523361219E+00  6.510273597313E+00  6.109870376831E+00  5.714874427282E+00
  5.325832627206E+00  4.943275715126E+00  4.567716078643E+00  4.199645629285E+00
  3.839533765813E+00  3.487825425714E+00  3.144939221646E+00  2.976927598200E+00
  2.811265656750E+00  2.647997536806E+00  2.487165410030E+00  2.328809429667E+00
  2.172967680595E+00  2.019676129849E+00  1.868968577504E+00  1.720876607798E+00
  1.575429540361E+00  1.432654381416E+00  1.292575774850E+00  1.155215953009E+00
  1.020594687114E+00  8.887292372028E-01  7.596343014743E-01  6.333219649851E-01
  5.098016476088E-01  3.890800512213E-01  2.711611060859E-01  1.560459164364E-01
  4.373270528990E-02 -6.578324145172E-02 -1.725096315094E-01 -2.764572232089E-01
 -3.776398827499E-01 -4.760746415307E-01 -5.717817532418E-01 -6.647847503823E-01
 -7.551104997924E-01 -8.427892567242E-01 -9.278547169047E-01 -1.010344065966E+00
 -1.090298025538E+00 -1.167760895207E+00 -1.242780589477E+00 -1.315408668749E+00
 -1.385700363260E+00 -1.453714588832E+00 -1.519513953172E+00 -1.583164751373E+00
 -1.644736949200E+00 -1.704304152603E+00 -1.761943561889E+00 -1.817735908838E+00
 -1.871765375051E+00 -1.924119489723E+00 -1.974889005002E+00 -2.024167747125E+00
 -2.072052441463E+00 -2.118642509676E+00 -2.164039837244E+00 -2.208348509695E+00
 -2.251674516026E+00 -2.294125417907E+00 -2.335809983547E+00 -2.376837785262E+00
 -2.417318760137E+00 -2.457362733479E+00 -2.497078905142E+00 -2.536575299258E+00
 -2.575958178330E+00 -2.615331423211E+00 -2.654795881012E+00 -2.694448683553E+00
 -2.734382539612E+00 -2.774685004817E+00 -2.815437733664E+00 -2.856715718780E+00
 -2.898586523137E+00 -2.941109511514E+00 -2.984335088031E+00 -3.028303947070E+00
 -3.073046345281E+00 -3.118581402747E+00 -3.164916441525E+00 -3.212046370056E+00
 -3.259953121817E+00 -3.308605156599E+00 -3.357957032593E+00 -3.407949057154E+00
 -3.458507023754E+00 -3.509542042166E+00 -3.560950468404E+00 -3.612613940403E+00
 -3.664399524817E+00 -3.716159979809E+00 -3.767734138129E+00 -3.818947414365E+00