<?xml version="1.0" encoding="UTF-8" ?>
<psml version="1.1" energy_unit="hartree" length_unit="bohr"
 uuid="b927ace0-be6c-11e7-5dff-a266f7e06db0"
 xmlns="http://esl.cecam.org/PSML/ns/1.1">
<provenance creator="ONCVPSP-3.3.0+psml-3.3.0-73 (scalar-relativistic)"
 date="2017-10-31">
<annotation action="semilocal-pseudopotential-generation"
 action-cont="projectors-generation" />
<input-file name="oncvpsp-input">
<![CDATA[# atsym z nc nv iexc psfile
I 53 8 3 4 upf
# n l f
1 0 2.0
2 0 2.0
2 1 6.0
3 0 2.0
3 1 6.0
3 2 10.0
4 0 2.0
4 1 6.0
4 2 10.0
5 0 2.0
5 1 5.0
# lmax
2
# l rc ep ncon nbas qcut
0 1.95 0.0 4 7 3.6
1 1.85 0.0 4 7 4.8
2 1.85 0.0 4 7 8.4
# lloc lpopt rc5 dvloc0
4 5 1.8 0.0
# l nproj debl
0 2 2.8
1 2 2.5
2 2 2.0
# icmod fcfact rcfact
3 8.8 1.25
# epsh1 epsh2 depsh
-12.0 12.0 0.02
# rlmax drl
6.0 0.01
 0
]]>
</input-file>
</provenance>
<pseudo-atom-spec atomic-label="I" atomic-number="53" z-pseudo="17"
 flavor="Hamann&apos;s oncvpsp" relativity="scalar" spin-dft="no"
 core-corrections="yes">
<annotation pseudo-energy="-107.408370723" />
<exchange-correlation>
<annotation oncvpsp-xc-code="4" oncvpsp-xc-type="GGA -- Perdew-Burke-Ernzerhof" />
<libxc-info number-of-functionals="2">
<functional name="Perdew, Burke &amp; Ernzerhof (GGA)" type="exchange" id="101" />
<functional name="Perdew, Burke &amp; Ernzerhof (GGA)" type="correlation"
 id="130" />
</libxc-info>
</exchange-correlation>
<valence-configuration total-valence-charge="17">
<shell n="4" l="d" occupation="10" />
<shell n="5" l="s" occupation="2" />
<shell n="5" l="p" occupation="5" />
</valence-configuration>
</pseudo-atom-spec>
<grid npts="458">
<annotation type="sampled from oncvpsp log grid"
 recipe="r(i:1..N) = r1*exp(a*(i-1)) + r=0; resampled"
 recipe-cont="r1: scale; a: step" scale="0.943396226415E-05"
 step="0.119285708653E-01" delta="0.500000000000E-02" rmax="44.3807093700" />
<grid-data>
  0.000000000000E+00  5.007762362137E-03  1.012264367117E-02  1.518557966799E-02
  2.021918633661E-02  2.536257896747E-02  3.069598770929E-02  3.584497442415E-02
  4.087087281817E-02  4.604887635970E-02  5.126767823703E-02  5.640112283188E-02
  6.204858043287E-02  6.745209415252E-02  7.245669368045E-02  7.783260883245E-02
  8.360738932391E-02  8.874568074888E-02  9.419975812269E-02  9.998902882364E-02
  1.061340929567E-01  1.113209650746E-01  1.167613244709E-01  1.224675593053E-01
  1.284526631584E-01  1.347302646194E-01  1.413146583191E-01  1.464632781427E-01
  1.517994813805E-01  1.573301023957E-01  1.630622245526E-01  1.690031892890E-01
  1.751606055187E-01  1.815423593765E-01  1.881566243185E-01  1.950118715903E-01
  2.021168810766E-01  2.094807525460E-01  2.145384558354E-01  2.197182723131E-01
  2.250231502799E-01  2.304561092202E-01  2.360202415212E-01  2.417187142325E-01
  2.475547708689E-01  2.535317332568E-01  2.596530034246E-01  2.659220655392E-01
  2.723424878896E-01  2.789179249172E-01  2.856521192964E-01  2.925489040647E-01
  2.996122048045E-01  3.068460418773E-01  3.142545327123E-01  3.218418941502E-01
  3.296124448425E-01  3.375706077108E-01  3.457209124634E-01  3.540679981739E-01
  3.626166159218E-01  3.713716314966E-01  3.803380281675E-01  3.895209095195E-01
  3.989255023590E-01  4.085571596879E-01  4.184213637514E-01  4.234424201164E-01
  4.285237291578E-01  4.336660139077E-01  4.388700060746E-01  4.441364461475E-01
  4.494660835013E-01  4.548596765033E-01  4.603179926214E-01  4.658418085328E-01
  4.714319102352E-01  4.770890931580E-01  4.828141622759E-01  4.886079322232E-01
  4.944712274099E-01  5.004048821388E-01  5.064097407245E-01  5.124866576132E-01
  5.186364975046E-01  5.248601354746E-01  5.311584571003E-01  5.375323585855E-01
  5.439827468885E-01  5.505105398512E-01  5.571166663294E-01  5.638020663254E-01
  5.705676911213E-01  5.774145034147E-01  5.843434774557E-01  5.913555991852E-01
  5.984518663754E-01  6.056332887719E-01  6.129008882372E-01  6.202556988960E-01
  6.276987672828E-01  6.352311524901E-01  6.428539263200E-01  6.505681734359E-01
  6.583749915171E-01  6.662754914153E-01  6.742707973123E-01  6.823620468800E-01
  6.905503914426E-01  6.988369961399E-01  7.072230400936E-01  7.157097165747E-01
  7.242982331736E-01  7.329898119717E-01  7.417856897153E-01  7.506871179919E-01
  7.596953634078E-01  7.688117077687E-01  7.780374482620E-01  7.873738976411E-01
  7.968223844128E-01  8.063842530257E-01  8.160608640621E-01  8.258535944308E-01
  8.357638375640E-01  8.457930036147E-01  8.559425196581E-01  8.662138298940E-01
  8.766083958527E-01  8.871276966030E-01  8.977732289622E-01  9.085465077098E-01
  9.194490658023E-01  9.304824545919E-01  9.416482440470E-01  9.529480229756E-01
  9.643833992513E-01  9.759560000423E-01  9.876674720428E-01  9.995194817073E-01
  1.011513715488E+00  1.023651880074E+00  1.035935702635E+00  1.048366931066E+00
  1.060947334239E+00  1.073678702250E+00  1.086562846677E+00  1.099601600837E+00
  1.112796820047E+00  1.126150381888E+00  1.139664186470E+00  1.153340156708E+00
  1.167180238588E+00  1.181186401451E+00  1.195360638269E+00  1.209704965928E+00
  1.224221425519E+00  1.238912082625E+00  1.253779027617E+00  1.268824375948E+00
  1.284050268460E+00  1.299458871681E+00  1.315052378141E+00  1.330833006679E+00
  1.346803002759E+00  1.362964638792E+00  1.379320214458E+00  1.395872057031E+00
  1.412622521716E+00  1.429573991976E+00  1.446728879880E+00  1.464089626439E+00
  1.481658701956E+00  1.499438606379E+00  1.517431869656E+00  1.535641052092E+00
  1.554068744717E+00  1.572717569653E+00  1.591590180489E+00  1.610689262655E+00
  1.630017533807E+00  1.649577744213E+00  1.669372677143E+00  1.689405149269E+00
  1.709678011060E+00  1.730194147193E+00  1.750956476959E+00  1.771967954683E+00
  1.793231570139E+00  1.814750348981E+00  1.836527353168E+00  1.858565681406E+00
  1.880868469583E+00  1.903438891218E+00  1.926280157913E+00  1.949395519808E+00
  1.972788266046E+00  1.996461725238E+00  2.020419265941E+00  2.044664297132E+00
  2.069200268698E+00  2.094030671922E+00  2.119159039985E+00  2.144588948465E+00
  2.170324015847E+00  2.196367904037E+00  2.222724318885E+00  2.249397010712E+00
  2.276389774840E+00  2.303706452138E+00  2.331350929564E+00  2.359327140719E+00
  2.387639066408E+00  2.416290735204E+00  2.445286224027E+00  2.474629658715E+00
  2.504325214620E+00  2.534377117195E+00  2.564789642602E+00  2.595567118313E+00
  2.626713923733E+00  2.658234490817E+00  2.690133304707E+00  2.722414904364E+00
  2.755083883216E+00  2.788144889815E+00  2.821602628492E+00  2.855461860034E+00
  2.889727402355E+00  2.924404131183E+00  2.959496980757E+00  2.995010944526E+00
  3.030951075861E+00  3.067322488771E+00  3.104130358636E+00  3.141379922940E+00
  3.179076482015E+00  3.217225399799E+00  3.255832104597E+00  3.294902089852E+00
  3.334440914930E+00  3.374454205909E+00  3.414947656380E+00  3.455927028257E+00
  3.497398152596E+00  3.539366930427E+00  3.581839333592E+00  3.624821405595E+00
  3.668319262462E+00  3.712339093612E+00  3.756887162735E+00  3.801969808688E+00
  3.847593446392E+00  3.893764567749E+00  3.940489742562E+00  3.987775619473E+00
  4.035628926907E+00  4.084056474029E+00  4.133065151718E+00  4.182661933538E+00
  4.232853876741E+00  4.283648123262E+00  4.335051900741E+00  4.387072523550E+00
  4.439717393832E+00  4.492994002558E+00  4.546909930589E+00  4.601472849756E+00
  4.656690523953E+00  4.712570810241E+00  4.769121659963E+00  4.826351119883E+00
  4.884267333322E+00  4.942878541322E+00  5.002193083817E+00  5.062219400823E+00
  5.122966033633E+00  5.184441626037E+00  5.246654925549E+00  5.309614784656E+00
  5.373330162072E+00  5.437810124016E+00  5.503063845505E+00  5.569100611651E+00
  5.635929818990E+00  5.703560976818E+00  5.772003708540E+00  5.841267753043E+00
  5.911362966079E+00  5.982299321672E+00  6.054086913532E+00  6.126735956495E+00
  6.200256787972E+00  6.274659869428E+00  6.349955787861E+00  6.426155257316E+00
  6.503269120403E+00  6.581308349848E+00  6.660284050046E+00  6.740207458647E+00
  6.821089948151E+00  6.902943027529E+00  6.985778343859E+00  7.069607683985E+00
  7.154442976193E+00  7.240296291907E+00  7.327179847410E+00  7.415106005579E+00
  7.504087277646E+00  7.594136324978E+00  7.685265960878E+00  7.777489152408E+00
  7.870819022237E+00  7.965268850504E+00  8.060852076710E+00  8.157582301630E+00
  8.255473289250E+00  8.354538968721E+00  8.454793436346E+00  8.556250957582E+00
  8.658925969073E+00  8.762833080702E+00  8.867987077670E+00  8.974402922602E+00
  9.082095757673E+00  9.191080906765E+00  9.301373877647E+00  9.412990364178E+00
  9.525946248549E+00  9.640257603531E+00  9.755940694773E+00  9.873011983111E+00
  9.991488126908E+00  1.011138598443E+01  1.023272261624E+01  1.035551528764E+01
  1.047978147109E+01  1.060553884874E+01  1.073280531493E+01  1.086159897871E+01
  1.099193816645E+01  1.112384142445E+01  1.125732752154E+01  1.139241545180E+01
  1.152912443722E+01  1.166747393047E+01  1.180748361764E+01  1.194917342105E+01
  1.209256350210E+01  1.223767426413E+01  1.238452635529E+01  1.253314067156E+01
  1.268353835962E+01  1.283574081993E+01  1.298976970977E+01  1.314564694629E+01
  1.330339470964E+01  1.346303544616E+01  1.362459187151E+01  1.378808697397E+01
  1.395354401766E+01  1.412098654587E+01  1.429043838442E+01  1.446192364504E+01
  1.463546672878E+01  1.481109232952E+01  1.498882543748E+01  1.516869134272E+01
  1.535071563884E+01  1.553492422650E+01  1.572134331722E+01  1.590999943703E+01
  1.610091943027E+01  1.629413046344E+01  1.648966002900E+01  1.668753594935E+01
  1.688778638074E+01  1.709043981731E+01  1.729552509511E+01  1.750307139626E+01
  1.771310825301E+01  1.792566555205E+01  1.814077353867E+01  1.835846282113E+01
  1.857876437499E+01  1.880170954749E+01  1.902733006206E+01  1.925565802280E+01
  1.948672591908E+01  1.972056663011E+01  1.995721342967E+01  2.019669999082E+01
  2.043906039071E+01  2.068432911540E+01  2.093254106479E+01  2.118373155756E+01
  2.143793633625E+01  2.169519157229E+01  2.195553387116E+01  2.221900027761E+01
  2.248562828094E+01  2.275545582031E+01  2.302852129016E+01  2.330486354564E+01
  2.358452190819E+01  2.386753617108E+01  2.415394660514E+01  2.444379396440E+01
  2.473711949197E+01  2.503396492588E+01  2.533437250499E+01  2.563838497505E+01
  2.594604559475E+01  2.625739814188E+01  2.657248691959E+01  2.689135676262E+01
  2.721405304377E+01  2.754062168030E+01  2.787110914046E+01  2.820556245015E+01
  2.854402919955E+01  2.888655754994E+01  2.923319624054E+01  2.958399459543E+01
  2.993900253057E+01  3.029827056094E+01  3.066184980767E+01  3.102979200536E+01
  3.140214950943E+01  3.177897530354E+01  3.216032300718E+01  3.254624688327E+01
  3.293680184587E+01  3.333204346802E+01  3.373202798964E+01  3.413681232551E+01
  3.454645407342E+01  3.496101152230E+01  3.538054366057E+01  3.580511018449E+01
  3.623477150671E+01  3.666958876479E+01  3.710962382997E+01  3.755493931593E+01
  3.800559858772E+01  3.846166577077E+01  3.892320576002E+01  3.939028422914E+01
  3.986296763989E+01  4.034132325157E+01  4.082541913059E+01  4.131532416015E+01
  4.181110805007E+01  4.231284134668E+01  4.282059544284E+01  4.333444258815E+01
  4.385445589921E+01  4.438070937000E+01
</grid-data>
</grid>
<valence-charge total-charge="17" is-unscreening-charge="yes"
 rescaled-to-z-pseudo="no">
<radfunc>
<data npts="458">
  1.357824047008E-02  1.358892251978E-02  1.362620265458E-02  1.370224543379E-02
  1.383765103517E-02  1.406820344042E-02  1.444841426671E-02  1.500253041049E-02
  1.577677135415E-02  1.688148355978E-02  1.838672097576E-02  2.033472445811E-02
  2.312158303496E-02  2.653626109355E-02  3.046021280038E-02  3.561327468222E-02
  4.238420500563E-02  4.962650146533E-02  5.872222353305E-02  7.014476883614E-02
  8.448610496494E-02  9.855151457559E-02  1.154146895336E-01  1.356236584676E-01
  1.598299220612E-01  1.888066111476E-01  2.234693635450E-01  2.538417920234E-01
  2.885437683374E-01  3.281699653728E-01  3.733909377827E-01  4.249613928459E-01
  4.837290137728E-01  5.506437767147E-01  6.267676678954E-01  7.132846634114E-01
  8.115107797890E-01  9.229039366441E-01  1.005269224449E+00  1.094714316932E+00
  1.191787614845E+00  1.297070809290E+00  1.411179450930E+00  1.534763255562E+00
  1.668506089266E+00  1.813125569284E+00  1.969372209233E+00  2.138028029438E+00
  2.319904545039E+00  2.515840036363E+00  2.726695997891E+00  2.953352654392E+00
  3.196703425538E+00  3.457648214114E+00  3.737085388034E+00  4.035902323455E+00
  4.354964375804E+00  4.695102148281E+00  5.057096934172E+00  5.441664220908E+00
  5.849435161357E+00  6.280935942311E+00  6.736565012690E+00  7.216568175902E+00
  7.721011603089E+00  8.249752888030E+00  8.802410341017E+00  9.087515028458E+00
  9.378330809190E+00  9.674728164365E+00  9.976556414842E+00  1.028364265974E+01
  1.059579072145E+01  1.091278010361E+01  1.123436496892E+01  1.156027314460E+01
  1.189020516364E+01  1.222383335089E+01  1.256080096337E+01  1.290072139520E+01
  1.324317745788E+01  1.358772074734E+01  1.393387110990E+01  1.428111621960E+01
  1.462891128005E+01  1.497667886434E+01  1.532380890686E+01  1.566965886122E+01
  1.601355403879E+01  1.635478814205E+01  1.669262400751E+01  1.702629457213E+01
  1.735500407729E+01  1.767792952360E+01  1.799422238918E+01  1.830301062307E+01
  1.860340092434E+01  1.889448131596E+01  1.917532402098E+01  1.944498864646E+01
  1.970252567852E+01  1.994698028929E+01  2.017739645391E+01  2.039282137239E+01
  2.059231018801E+01  2.077493099025E+01  2.093977008609E+01  2.108593751973E+01
  2.121257281613E+01  2.131885091915E+01  2.140398829064E+01  2.146724913166E+01
  2.150795168240E+01  2.152547455229E+01  2.151926302730E+01  2.148883529672E+01
  2.143378853728E+01  2.135380478884E+01  2.124865655212E+01  2.111821203629E+01
  2.096243998186E+01  2.078141398296E+01  2.057531623282E+01  2.034444061647E+01
  2.008919507676E+01  1.981010318237E+01  1.950780483101E+01  1.918305602655E+01
  1.883672767577E+01  1.846980335911E+01  1.808337603980E+01  1.767864368703E+01
  1.725690380168E+01  1.681954684726E+01  1.636804860371E+01  1.590396147798E+01
  1.542890482192E+01  1.494455432546E+01  1.445263057033E+01  1.395488684678E+01
  1.345309635234E+01  1.294903890749E+01  1.244448733705E+01  1.194119367885E+01
  1.144087539147E+01  1.094520174013E+01  1.045578054508E+01  9.974145477517E+00
  9.501744086394E+00  9.039926733188E+00  8.589936601992E+00  8.152900938607E+00
  7.729823654862E+00  7.321579413413E+00  6.928909284132E+00  6.552418036293E+00
  6.192573101698E+00  5.849705213347E+00  5.524010692973E+00  5.215555329544E+00
  4.924279760599E+00  4.650006239848E+00  4.392446648668E+00  4.151211586858E+00
  3.925820359803E+00  3.715711665812E+00  3.520254779090E+00  3.338761020913E+00
  3.170495314152E+00  3.014687624092E+00  2.870544101232E+00  2.737257758843E+00
  2.614018538740E+00  2.500022642153E+00  2.394481027775E+00  2.296627004946E+00
  2.205722875575E+00  2.121065602672E+00  2.041991505593E+00  1.967880001400E+00
  1.898156427691E+00  1.832293994630E+00  1.769814922495E+00  1.710290826329E+00
  1.653342411381E+00  1.598638542892E+00  1.545894751928E+00  1.494871236522E+00
  1.445370415007E+00  1.397234087164E+00  1.350340259113E+00  1.304599690305E+00
  1.259950972691E+00  1.216350629859E+00  1.173761646557E+00  1.132150814456E+00
  1.091489383698E+00  1.051751675890E+00  1.012915463193E+00  9.749626837623E-01
  9.378791128498E-01  9.016536022331E-01  8.662776977628E-01  8.317451640419E-01
  7.980515625333E-01  7.651938614387E-01  7.331700788336E-01  7.019789585381E-01
  6.716196779799E-01  6.420915871374E-01  6.133939775018E-01  5.855258798680E-01
  5.584858896178E-01  5.322720181611E-01  5.068815689896E-01  4.823110368730E-01
  4.585560285060E-01  4.356112032345E-01  4.134702320397E-01  3.921257732868E-01
  3.715694636459E-01  3.517919226347E-01  3.327827692791E-01  3.145306494375E-01
  2.970232723928E-01  2.802474553833E-01  2.641891748139E-01  2.488336229654E-01
  2.341652690981E-01  2.201679239278E-01  2.068248065336E-01  1.941186128415E-01
  1.820315849046E-01  1.705455802886E-01  1.596421409412E-01  1.493025609994E-01
  1.395079530660E-01  1.302393125444E-01  1.214775796893E-01  1.132036990829E-01
  1.053986763010E-01  9.804363157852E-02  9.111985032549E-02  8.460883038174E-02
  7.849232593071E-02  7.275238802068E-02  6.737140166673E-02  6.233211952836E-02
  5.761769217713E-02  5.321169498588E-02  4.909815168740E-02  4.526155466508E-02
  4.168688205232E-02  3.835961173113E-02  3.526573233337E-02  3.239175136053E-02
  2.972470055009E-02  2.725213862729E-02  2.496215159167E-02  2.284335069623E-02
  2.088486828510E-02  1.907635166116E-02  1.740795515953E-02  1.587033060537E-02
  1.445461633486E-02  1.315242495729E-02  1.195583003307E-02  1.085735183804E-02
  9.849942378313E-03  8.926969812605E-03  8.082202430423E-03  7.309792325114E-03
  6.604258890640E-03  5.960472260294E-03  5.373636794604E-03  4.839274714551E-03
  4.353209965152E-03  3.911552383541E-03  3.510682235051E-03  3.147235170622E-03
  2.818087649179E-03  2.520342859525E-03  2.251317167896E-03  2.008527109606E-03
  1.789676936263E-03  1.592646723836E-03  1.415481041455E-03  1.256378176161E-03
  1.113679904920E-03  9.858618020106E-04  8.715240673588E-04  7.693828594407E-04
  6.782621149960E-04  5.970858368657E-04  5.248708307626E-04  4.607198716098E-04
  4.038152801839E-04  3.534128911171E-04  3.088363937766E-04  2.694720281211E-04
  2.347636182721E-04  2.042079272111E-04  1.773503166889E-04  1.537806970957E-04
  1.331297526672E-04  1.150654280011E-04  9.928966240522E-05  8.553535911258E-05
  7.356357686805E-05  6.316093182937E-05  5.413719813188E-05  4.632309584997E-05
  3.956825545499E-05  3.373934822287E-05  2.871837239235E-05  2.440108521870E-05
  2.069557141296E-05  1.752093880421E-05  1.480613241542E-05  1.248885850061E-05
  1.051461045502E-05  8.835788878031E-06  7.410908440831E-06  6.203884585943E-06
  5.183393461410E-06  4.322298867377E-06  3.597140364911E-06  2.987677064245E-06
  2.476481970336E-06  2.048582115980E-06  1.691140055068E-06  1.393172619520E-06
  1.145303161695E-06  9.395438087069E-07  7.691045452030E-07  6.282262161919E-07
  5.120348010813E-07  4.164145539317E-07  3.378978330536E-07  2.735696555731E-07
  2.209852097224E-07  1.780987397603E-07  1.432023860659E-07  1.148737166442E-07
  9.193082665953E-08  7.339401035832E-08  5.845312555928E-08  4.643987552924E-08
  3.680432725762E-08  2.909506964889E-08  2.294249070127E-08  1.804472005248E-08
  1.415584304474E-08  1.107604535914E-08  8.643393928698E-09  6.727000860208E-09
  5.221353040122E-09  4.041621494502E-09  3.119791904218E-09  2.401481392779E-09
  1.843327216831E-09  1.410850673759E-09  1.076714737497E-09  8.193069502281E-10
  6.215902107194E-10  4.701735570968E-10  3.545630633975E-10  2.665597509667E-10
  1.997771304164E-10  1.492557894965E-10  1.111564599762E-10  8.251634867047E-11
  6.105630500580E-11  4.502870733826E-11  3.309785791029E-11  2.424624648458E-11
  1.770133059471E-11  1.287853307491E-11  9.337015012436E-12  6.745478252626E-12
  4.855814486271E-12  3.482871576941E-12  2.488972031778E-12  1.772109926278E-12
  1.256984867870E-12  8.882160347080E-13  6.252252505664E-13  4.383930630096E-13
  3.061820833546E-13  2.129924599256E-13  1.475693632543E-13  1.018250426302E-13
  6.997099751338E-14  4.788119473797E-14  3.262672294166E-14  2.213713132854E-14
  1.495499296294E-14  1.005878140927E-14  6.735593013283E-15  4.490082895158E-15
  2.979596084648E-15  1.968163260180E-15  1.294021289298E-15  8.467864316811E-16
  5.514851531235E-16  3.574342970878E-16  2.305344196943E-16  1.479540545929E-16
  9.448080564852E-17  6.002880256114E-17  3.794447768860E-17  2.386071233287E-17
  1.492577382883E-17  9.287128263679E-18  5.747638134489E-18  3.537794334414E-18
  2.165620368398E-18  1.318286030808E-18  7.979673350236E-19  4.802626209463E-19
  2.873823802184E-19  1.709613171477E-19  1.011019675232E-19  5.943078102291E-20
  0.000000000000E+00  0.000000000000E+00  0.000000000000E+00  0.000000000000E+00
  0.000000000000E+00  0.000000000000E+00  0.000000000000E+00  0.000000000000E+00
  0.000000000000E+00  0.000000000000E+00  0.000000000000E+00  0.000000000000E+00
  0.000000000000E+00  0.000000000000E+00  0.000000000000E+00  0.000000000000E+00
  0.000000000000E+00  0.000000000000E+00  0.000000000000E+00  0.000000000000E+00
  0.000000000000E+00  0.000000000000E+00  0.000000000000E+00  0.000000000000E+00
  0.000000000000E+00  0.000000000000E+00  0.000000000000E+00  0.000000000000E+00
  0.000000000000E+00  0.000000000000E+00  0.000000000000E+00  0.000000000000E+00
  0.000000000000E+00  0.000000000000E+00
</data>
</radfunc>
</valence-charge>
<pseudocore-charge matching-radius="0.787373897641"
 number-of-continuous-derivatives="4">
<annotation model-charge-form="Teter function with specified parameters" />
<radfunc>
<data npts="291">
  1.894675299786E+02  1.894520333182E+02  1.894042177992E+02  1.893250751627E+02
  1.892150519726E+02  1.890704046710E+02  1.888860888800E+02  1.886750799065E+02
  1.884378847635E+02  1.881613603928E+02  1.878497768268E+02  1.875112352616E+02
  1.871022671165E+02  1.866753511609E+02  1.862490866989E+02  1.857583550615E+02
  1.851936070174E+02  1.846586257433E+02  1.840576004646E+02  1.833826247473E+02
  1.826249119360E+02  1.819526554724E+02  1.812157625183E+02  1.804083123161E+02
  1.795239034146E+02  1.785556278938E+02  1.774960473145E+02  1.766366575234E+02
  1.757178452883E+02  1.747358467247E+02  1.736867125787E+02  1.725663076791E+02
  1.713703120976E+02  1.700942243478E+02  1.687333669974E+02  1.672828951140E+02
  1.657378080098E+02  1.640929648043E+02  1.629383887564E+02  1.617355567890E+02
  1.604828702955E+02  1.591787200635E+02  1.578214912872E+02  1.564095692061E+02
  1.549413454154E+02  1.534152248962E+02  1.518296338103E+02  1.501830281089E+02
  1.484739029991E+02  1.467008033151E+02  1.448623348352E+02  1.429571765841E+02
  1.409840941556E+02  1.389419540848E+02  1.368297392904E+02  1.346465656003E+02
  1.323916993629E+02  1.300645761303E+02  1.276648203890E+02  1.251922662904E+02
  1.226469793172E+02  1.200292787939E+02  1.173397611258E+02  1.145793236177E+02
  1.117491886928E+02  1.088509282910E+02  1.058864881896E+02  1.043801669324E+02
  1.028582119415E+02  1.013209821219E+02  9.976886408246E+01  9.820227279184E+01
  9.662165220714E+01  9.502747586952E+01  9.342024746343E+01  9.180050133468E+01
  9.016880296270E+01  8.852574938237E+01  8.687196955014E+01  8.520812464935E+01
  8.353490832941E+01  8.185304687324E+01  8.016329928726E+01  7.846645730826E+01
  7.676334532113E+01  7.505482018148E+01  7.334177093721E+01  7.162511844284E+01
  6.990581486070E+01  6.818484304281E+01  6.646321578778E+01  6.474197496674E+01
  6.302219051285E+01  6.130495926903E+01  5.959140368883E+01  5.788267038573E+01
  5.617992852675E+01  5.448436806636E+01  5.279719781765E+01  5.111964335812E+01
  4.945294476826E+01  4.779835420175E+01  4.615713328728E+01  4.453055036265E+01
  4.291987754300E+01  4.132638762625E+01  3.975135083984E+01  3.819603143443E+01
  3.666168413137E+01  3.514955043242E+01  3.366085480164E+01  3.219680073099E+01
  3.075856670286E+01  2.934730206463E+01  2.796412283168E+01  2.661010743763E+01
  2.528629245189E+01  2.399366828670E+01  2.273317491735E+01  2.150569764113E+01
  2.031206290218E+01  1.915303421083E+01  1.802930818744E+01  1.694151076212E+01
  1.589019356265E+01  1.487583052369E+01  1.389881475120E+01  1.295945567606E+01
  1.205797653094E+01  1.119451218422E+01  1.036910736386E+01  9.581715303068E+00
  8.832196838079E+00  8.120319986108E+00  7.445760029315E+00  6.808100127347E+00
  6.206832477630E+00  5.641360038531E+00  5.110998825980E+00  4.614980789127E+00
  4.152457265146E+00  3.722503007416E+00  3.324120774998E+00  2.956246464782E+00
  2.617754760782E+00  2.307465268102E+00  2.024149091940E+00  1.766535815013E+00
  1.533320819836E+00  1.323172895668E+00  1.134742063751E+00  9.666675487626E-01
  8.175858194920E-01  6.861386175895E-01  5.709808901524E-01  4.707885398963E-01
  3.842659059328E-01  3.101528888107E-01  2.472316355789E-01  1.943327042732E-01
  1.503406324488E-01  1.141988411961E-01  8.491381445231E-02  6.155850329936E-02
  4.327491619801E-02  2.927586860315E-02  1.884587893063E-02  1.134121215784E-02
  6.189087152032E-03  2.886078807727E-03  9.957608795056E-04  1.456496412498E-04
  2.352179111582E-05  3.731919582759E-04  9.898453661720E-04  1.715029307068E-03
  2.431412763063E-03  3.057426503802E-03  3.541896105187E-03  3.858777454731E-03
  4.002098421500E-03  3.981201560328E-03  3.816371189921E-03  3.534914242598E-03
  3.167748347898E-03  2.746533199759E-03  2.301362968351E-03  1.859019017625E-03
  1.441764181236E-03  1.066643044022E-03  7.452377601263E-04  4.838165379358E-04
  2.838025668892E-04  1.424852530423E-04  5.389341267303E-05  9.751609115073E-06
  4.459765945467E-07  1.593432831695E-05  4.654657901242E-05  8.363484344661E-05
  1.200471897953E-04  1.504140329774E-04  1.712506211197E-04  1.808921032273E-04
  1.792884681078E-04  1.676945698668E-04  1.482950685789E-04  1.238052287283E-04
  9.708621495260E-05  7.080815668269E-05  4.718641964533E-05  2.780702300918E-05
  1.354691035481E-05  4.584805776185E-06  4.896072297813E-07  3.664978721846E-07
  3.036785490708E-06  7.226221575976E-06  1.173819811431E-05  1.559244363114E-05
  1.811602501607E-05  1.898077493215E-05  1.818875363877E-05  1.601406456209E-05
  1.291444114493E-05  9.428906001463E-06  6.078184608311E-06  3.282504200937E-06
  1.307343074861E-06  2.423244489318E-07  0.000000000000E+00  0.000000000000E+00
  0.000000000000E+00  0.000000000000E+00  0.000000000000E+00  0.000000000000E+00
  0.000000000000E+00  0.000000000000E+00  0.000000000000E+00  0.000000000000E+00
  0.000000000000E+00  0.000000000000E+00  0.000000000000E+00  0.000000000000E+00
  0.000000000000E+00  0.000000000000E+00  0.000000000000E+00  0.000000000000E+00
  0.000000000000E+00  0.000000000000E+00  0.000000000000E+00  0.000000000000E+00
  0.000000000000E+00  0.000000000000E+00  0.000000000000E+00  0.000000000000E+00
  0.000000000000E+00  0.000000000000E+00  0.000000000000E+00  0.000000000000E+00
  0.000000000000E+00  0.000000000000E+00  0.000000000000E+00  0.000000000000E+00
  0.000000000000E+00  0.000000000000E+00  0.000000000000E+00  0.000000000000E+00
  0.000000000000E+00  0.000000000000E+00  0.000000000000E+00  0.000000000000E+00
  0.000000000000E+00  0.000000000000E+00  0.000000000000E+00  0.000000000000E+00
  0.000000000000E+00  0.000000000000E+00  0.000000000000E+00  0.000000000000E+00
  0.000000000000E+00  0.000000000000E+00  0.000000000000E+00  0.000000000000E+00
  0.000000000000E+00  0.000000000000E+00  0.000000000000E+00  0.000000000000E+00
  0.000000000000E+00  0.000000000000E+00  0.000000000000E+00
</data>
</radfunc>
</pseudocore-charge>
<semilocal-potentials set="scalar_relativistic">
<slps n="5" l="s" rc="1.97278826605" eref="-0.639713175237">
<radfunc>
<data npts="291">
  1.728686442506E+01  1.727596722804E+01  1.724237800122E+01  1.718689647181E+01
  1.711000239931E+01  1.700932490379E+01  1.688171570451E+01  1.673655114514E+01
  1.657453943533E+01  1.638720741653E+01  1.617808918437E+01  1.595320435326E+01
  1.568471558530E+01  1.540808835983E+01  1.513552662995E+01  1.482616071993E+01
  1.447585621668E+01  1.414953159232E+01  1.378916434631E+01  1.339212580461E+01
  1.295580375151E+01  1.257675383317E+01  1.216970400007E+01  1.173350975636E+01
  1.126714579194E+01  1.076973958479E+01  1.024060745441E+01  9.822653695730E+00
  9.386495006533E+00  8.932127988036E+00  8.459651441435E+00  7.969274976300E+00
  7.461327017431E+00  6.936261990923E+00  6.394666464785E+00  5.837264021059E+00
  5.264918646238E+00  4.678636445311E+00  4.280600130288E+00  3.877251914544E+00
  3.468993829786E+00  3.056254390711E+00  2.639487725665E+00  2.219172525309E+00
  1.795810813736E+00  1.369926548863E+00  9.420640613382E-01  5.127863434072E-01
  8.267320137369E-02 -3.476807128600E-01 -7.776679740084E-01 -1.206670540910E+00
 -1.634061979911E+00 -2.059209734172E+00 -2.481477418863E+00 -2.900227122610E+00
 -3.314821696444E+00 -3.724627012887E+00 -4.129014179722E+00 -4.527361695392E+00
 -4.919057535788E+00 -5.303501165562E+00 -5.680105470725E+00 -6.048298613388E+00
 -6.407525813831E+00 -6.757251069600E+00 -7.096958826069E+00 -7.262901026556E+00
 -7.426155617578E+00 -7.586664635562E+00 -7.744371702917E+00 -7.899222080862E+00
 -8.051162723373E+00 -8.200142332544E+00 -8.346111415651E+00 -8.489022344242E+00
 -8.628829415552E+00 -8.765488916585E+00 -8.898959191167E+00 -9.029200710318E+00
 -9.156176146273E+00 -9.279850450345E+00 -9.400190935264E+00 -9.517167361808E+00
 -9.630752030418E+00 -9.740919877853E+00 -9.847648579100E+00 -9.950918654794E+00
 -1.005071358424E+01 -1.014701992415E+01 -1.023982743314E+01 -1.032912920187E+01
 -1.041492178891E+01 -1.049720536190E+01 -1.057598384390E+01 -1.065126506444E+01
 -1.072306091475E+01 -1.079138750662E+01 -1.085626533390E+01 -1.091771943592E+01
 -1.097577956147E+01 -1.103048033214E+01 -1.108186140354E+01 -1.112996762246E+01
 -1.117484917827E+01 -1.121656174604E+01 -1.125516661920E+01 -1.129073082881E+01
 -1.132332724660E+01 -1.135303466841E+01 -1.137993787467E+01 -1.140412766407E+01
 -1.142570085657E+01 -1.144476026147E+01 -1.146141460640E+01 -1.147577842260E+01
 -1.148797188209E+01 -1.149812058220E+01 -1.150635527294E+01 -1.151281152282E+01
 -1.151762931900E+01 -1.152095259787E+01 -1.152292870245E+01 -1.152370776354E+01
 -1.152344200209E+01 -1.152228495077E+01 -1.152039059343E+01 -1.151791242216E+01
 -1.151500241216E+01 -1.151180991598E+01 -1.150848047958E+01 -1.150515458416E+01
 -1.150196631891E+01 -1.149904199177E+01 -1.149649868730E+01 -1.149444278292E+01
 -1.149296843815E+01 -1.149215607440E+01 -1.149207086726E+01 -1.149276127774E+01
 -1.149425765440E+01 -1.149657094366E+01 -1.149969155166E+01 -1.150358840610E+01
 -1.150820827078E+01 -1.151347536707E+01 -1.151929135494E+01 -1.152553571943E+01
 -1.153206659544E+01 -1.153872204335E+01 -1.154532175992E+01 -1.155166917297E+01