<?xml version="1.0" encoding="UTF-8" ?>
<psml version="1.1" energy_unit="hartree" length_unit="bohr"
 uuid="84df0710-be41-11e7-4afd-6dadf7fe0e15"
 xmlns="http://esl.cecam.org/PSML/ns/1.1">
<provenance creator="ONCVPSP-3.3.0+psml-3.3.0-73 (scalar-relativistic)"
 date="2017-10-31">
<annotation action="semilocal-pseudopotential-generation"
 action-cont="projectors-generation" />
<input-file name="oncvpsp-input">
<![CDATA[# atsym z nc nv iexc psfile
P 15 3 2 4 upf
# n l f
1 0 2.0
2 0 2.0
2 1 6.0
3 0 2.0
3 1 3.0
# lmax
2
# l rc ep ncon nbas qcut
0 1.45 0.0 4 9 6.2
1 1.55 0.0 4 9 6.6
2 1.7 0.05 4 9 6.6
# lloc lpopt rc5 dvloc0
4 5 1.45 0.0
# l nproj debl
0 2 3.0
1 2 2.5
2 2 2.0
# icmod fcfact rcfact
3 5.0 1.1
# epsh1 epsh2 depsh
-12.0 12.0 0.02
# rlmax drl
6.0 0.01
 0
]]>
</input-file>
</provenance>
<pseudo-atom-spec atomic-label="P" atomic-number="15" z-pseudo="5"
 flavor="Hamann&apos;s oncvpsp" relativity="scalar" spin-dft="no"
 core-corrections="yes">
<annotation pseudo-energy="-6.41137599409" />
<exchange-correlation>
<annotation oncvpsp-xc-code="4" oncvpsp-xc-type="GGA -- Perdew-Burke-Ernzerhof" />
<libxc-info number-of-functionals="2">
<functional name="Perdew, Burke &amp; Ernzerhof (GGA)" type="exchange" id="101" />
<functional name="Perdew, Burke &amp; Ernzerhof (GGA)" type="correlation"
 id="130" />
</libxc-info>
</exchange-correlation>
<valence-configuration total-valence-charge="5">
<shell n="3" l="s" occupation="2" />
<shell n="3" l="p" occupation="3" />
</valence-configuration>
</pseudo-atom-spec>
<grid npts="457">
<annotation type="sampled from oncvpsp log grid"
 recipe="r(i:1..N) = r1*exp(a*(i-1)) + r=0; resampled"
 recipe-cont="r1: scale; a: step" scale="0.333333333333E-04"
 step="0.119285708653E-01" delta="0.500000000000E-02" rmax="44.2837637062" />
<grid-data>
  0.000000000000E+00  5.056785236402E-03  1.010053166746E-02  1.515240813643E-02
  2.017501934448E-02  2.530717669722E-02  3.062893508784E-02  3.576667430480E-02
  4.078159407628E-02  4.594828673528E-02  5.115568860978E-02  5.627791965710E-02
  6.191304089543E-02  6.730475112585E-02  7.316599957938E-02  7.859454159214E-02
  8.442585358759E-02  8.961444568504E-02  9.512191507908E-02  1.009678591341E-01
  1.071730796174E-01  1.124107279825E-01  1.179043451086E-01  1.236664404276E-01
  1.297101347195E-01  1.360491899885E-01  1.426980408012E-01  1.478970624059E-01
  1.532855037496E-01  1.588702660996E-01  1.646585021619E-01  1.706576252426E-01
  1.768753187418E-01  1.833195459948E-01  1.899985604706E-01  1.969209163432E-01
  2.040954794468E-01  2.115314386309E-01  2.166386536853E-01  2.218691773398E-01
  2.272259867575E-01  2.327121309818E-01  2.383307326722E-01  2.440849898819E-01
  2.499781778776E-01  2.560136510042E-01  2.621948445941E-01  2.685252769220E-01
  2.750085512080E-01  2.816483576683E-01  2.884484756159E-01  2.954127756112E-01
  3.025452216655E-01  3.098498734974E-01  3.173308888431E-01  3.249925258234E-01
  3.328391453668E-01  3.408752136926E-01  3.491053048520E-01  3.575341033323E-01
  3.661664067232E-01  3.750071284471E-01  3.840613005563E-01  3.933340765969E-01
  4.028307345423E-01  4.125566797971E-01  4.225174482741E-01  4.275876576534E-01
  4.327187095452E-01  4.379113340598E-01  4.431662700685E-01  4.484842653093E-01
  4.538660764930E-01  4.593124694110E-01  4.648242190439E-01  4.704021096724E-01
  4.760469349885E-01  4.817594982083E-01  4.875406121868E-01  4.933910995331E-01
  4.993117927275E-01  5.053035342402E-01  5.113671766511E-01  5.175035827709E-01
  5.237136257642E-01  5.299981892733E-01  5.363581675446E-01  5.427944655551E-01
  5.493079991418E-01  5.558996951315E-01  5.625704914731E-01  5.693213373708E-01
  5.761531934192E-01  5.830670317402E-01  5.900638361211E-01  5.971446021546E-01
  6.043103373804E-01  6.115620614290E-01  6.189008061661E-01  6.263276158401E-01
  6.338435472302E-01  6.414496697970E-01  6.491470658345E-01  6.569368306246E-01
  6.648200725921E-01  6.727979134632E-01  6.808714884247E-01  6.890419462858E-01
  6.973104496412E-01  7.056781750369E-01  7.141463131374E-01  7.227160688950E-01
  7.313886617218E-01  7.401653256624E-01  7.490473095704E-01  7.580358772852E-01
  7.671323078126E-01  7.763378955064E-01  7.856539502525E-01  7.950817976555E-01
  8.046227792274E-01  8.142782525781E-01  8.240495916090E-01  8.339381867083E-01
  8.439454449488E-01  8.540727902882E-01  8.643216637717E-01  8.746935237370E-01
  8.851898460218E-01  8.958121241741E-01  9.065618696641E-01  9.174406121001E-01
  9.284498994453E-01  9.395912982387E-01  9.508663938175E-01  9.622767905433E-01
  9.738241120299E-01  9.855100013742E-01  9.973361213907E-01  1.009304154847E+00
  1.021415804706E+00  1.033672794362E+00  1.046076867894E+00  1.058629790309E+00
  1.071333347793E+00  1.084189347966E+00  1.097199620142E+00  1.110366015584E+00
  1.123690407771E+00  1.137174692664E+00  1.150820788976E+00  1.164630638444E+00
  1.178606206105E+00  1.192749480578E+00  1.207062474345E+00  1.221547224037E+00
  1.236205790726E+00  1.251040260214E+00  1.266052743337E+00  1.281245376257E+00
  1.296620320772E+00  1.312179764621E+00  1.327925921797E+00  1.343861032858E+00
  1.359987365253E+00  1.376307213636E+00  1.392822900199E+00  1.409536775002E+00
  1.426451216302E+00  1.443568630897E+00  1.460891454468E+00  1.478422151922E+00
  1.496163217745E+00  1.514117176358E+00  1.532286582474E+00  1.550674021464E+00
  1.569282109721E+00  1.588113495038E+00  1.607170856978E+00  1.626456907262E+00
  1.645974390149E+00  1.665726082831E+00  1.685714795825E+00  1.705943373375E+00
  1.726414693855E+00  1.747131670182E+00  1.768097250224E+00  1.789314417227E+00
  1.810786190233E+00  1.832515624516E+00  1.854505812010E+00  1.876759881754E+00
  1.899281000335E+00  1.922072372339E+00  1.945137240808E+00  1.968478887697E+00
  1.992100634350E+00  2.016005841962E+00  2.040197912065E+00  2.064680287010E+00
  2.089456450454E+00  2.114529927860E+00  2.139904286994E+00  2.165583138438E+00
  2.191570136099E+00  2.217868977732E+00  2.244483405465E+00  2.271417206331E+00
  2.298674212807E+00  2.326258303360E+00  2.354173403001E+00  2.382423483837E+00
  2.411012565643E+00  2.439944716430E+00  2.469224053028E+00  2.498854741664E+00
  2.528840998564E+00  2.559187090547E+00  2.589897335633E+00  2.620976103661E+00
  2.652427816905E+00  2.684256950708E+00  2.716468034116E+00  2.749065650526E+00
  2.782054438332E+00  2.815439091592E+00  2.849224360691E+00  2.883415053019E+00
  2.918016033655E+00  2.953032226059E+00  2.988468612772E+00  3.024330236125E+00
  3.060622198959E+00  3.097349665346E+00  3.134517861330E+00  3.172132075666E+00
  3.210197660574E+00  3.248720032501E+00  3.287704672891E+00  3.327157128966E+00
  3.367083014514E+00  3.407488010688E+00  3.448377866816E+00  3.489758401218E+00
  3.531635502032E+00  3.574015128057E+00  3.616903309594E+00  3.660306149309E+00
  3.704229823100E+00  3.748680580978E+00  3.793664747949E+00  3.839188724925E+00
  3.885258989624E+00  3.931882097499E+00  3.979064682669E+00  4.026813458861E+00
  4.075135220368E+00  4.124036843012E+00  4.173525285128E+00  4.223607588550E+00
  4.274290879612E+00  4.325582370168E+00  4.377489358610E+00  4.430019230913E+00
  4.483179461684E+00  4.536977615224E+00  4.591421346607E+00  4.646518402766E+00
  4.702276623599E+00  4.758703943083E+00  4.815808390400E+00  4.873598091084E+00
  4.932081268177E+00  4.991266243395E+00  5.051161438316E+00  5.111775375576E+00
  5.173116680083E+00  5.235194080244E+00  5.298016409207E+00  5.361592606117E+00
  5.425931717391E+00  5.491042897999E+00  5.556935412775E+00  5.623618637729E+00
  5.691102061381E+00  5.759395286118E+00  5.828508029551E+00  5.898450125906E+00
  5.969231527417E+00  6.040862305746E+00  6.113352653415E+00  6.186712885256E+00
  6.260953439879E+00  6.336084881157E+00  6.412117899731E+00  6.489063314528E+00
  6.566932074303E+00  6.645735259194E+00  6.725484082304E+00  6.806189891292E+00
  6.887864169988E+00  6.970518540027E+00  7.054164762508E+00  7.138814739658E+00
  7.224480516534E+00  7.311174282732E+00  7.398908374125E+00  7.487695274614E+00
  7.577547617910E+00  7.668478189325E+00  7.760499927597E+00  7.853625926728E+00
  7.947869437849E+00  8.043243871103E+00  8.139762797556E+00  8.237439951127E+00
  8.336289230540E+00  8.436324701307E+00  8.537560597722E+00  8.640011324895E+00
  8.743691460794E+00  8.848615758323E+00  8.954799147423E+00  9.062256737192E+00
  9.171003818039E+00  9.281055863855E+00  9.392428534221E+00  9.505137676632E+00
  9.619199328751E+00  9.734629720697E+00  9.851445277345E+00  9.969662620673E+00
  1.008929857212E+01  1.021037015499E+01  1.033289459685E+01  1.045688933201E+01
  1.058237200399E+01  1.070936046804E+01  1.083787279366E+01  1.096792726718E+01
  1.109954239439E+01  1.123273690312E+01  1.136752974596E+01  1.150394010291E+01
  1.164198738414E+01  1.178169123275E+01  1.192307152755E+01  1.206614838588E+01
  1.221094216651E+01  1.235747347251E+01  1.250576315418E+01  1.265583231203E+01
  1.280770229977E+01  1.296139472737E+01  1.311693146410E+01  1.327433464166E+01
  1.343362665736E+01  1.359483017725E+01  1.375796813938E+01  1.392306375705E+01
  1.409014052214E+01  1.425922220840E+01  1.443033287490E+01  1.460349686940E+01
  1.477873883184E+01  1.495608369782E+01  1.513555670219E+01  1.531718338262E+01
  1.550098958321E+01  1.568700145821E+01  1.587524547571E+01  1.606574842141E+01
  1.625853740247E+01  1.645363985130E+01  1.665108352952E+01  1.685089653187E+01
  1.705310729025E+01  1.725774457774E+01  1.746483751267E+01  1.767441556282E+01
  1.788650854958E+01  1.810114665217E+01  1.831836041200E+01  1.853818073694E+01
  1.876063890578E+01  1.898576657265E+01  1.921359577152E+01  1.944415892078E+01
  1.967748882783E+01  1.991361869377E+01  2.015258211809E+01  2.039441310351E+01
  2.063914606075E+01  2.088681581348E+01  2.113745760324E+01  2.139110709448E+01
  2.164780037961E+01  2.190757398417E+01  2.217046487198E+01  2.243651045044E+01
  2.270574857585E+01  2.297821755876E+01  2.325395616946E+01  2.353300364350E+01
  2.381539968722E+01  2.410118448347E+01  2.439039869727E+01  2.468308348163E+01
  2.497928048341E+01  2.527903184922E+01  2.558238023141E+01  2.588936879418E+01
  2.620004121971E+01  2.651444171435E+01  2.683261501492E+01  2.715460639510E+01
  2.748046167184E+01  2.781022721190E+01  2.814394993845E+01  2.848167733771E+01
  2.882345746576E+01  2.916933895535E+01  2.951937102281E+01  2.987360347509E+01
  3.023208671679E+01  3.059487175739E+01  3.096201021848E+01  3.133355434110E+01
  3.170955699319E+01  3.209007167711E+01  3.247515253724E+01  3.286485436768E+01
  3.325923262010E+01  3.365834341154E+01  3.406224353248E+01  3.447099045487E+01
  3.488464234032E+01  3.530325804841E+01  3.572689714499E+01  3.615561991073E+01
  3.658948734966E+01  3.702856119785E+01  3.747290393223E+01  3.792257877942E+01
  3.837764972477E+01  3.883818152147E+01  3.930423969972E+01  3.977589057612E+01
  4.025320126303E+01  4.073623967819E+01  4.122507455433E+01  4.171977544898E+01
  4.222041275437E+01  4.272705770742E+01  4.323978239991E+01  4.375865978871E+01
  4.428376370617E+01
</grid-data>
</grid>
<valence-charge total-charge="5" is-unscreening-charge="yes"
 rescaled-to-z-pseudo="no">
<radfunc>
<data npts="457">
  1.675365258973E-02  1.678330448739E-02  1.687196334894E-02  1.701994165687E-02
  1.722581722488E-02  1.749676123556E-02  1.784247108444E-02  1.823888400548E-02
  1.868530495244E-02  1.920683702718E-02  1.979590324917E-02  2.043763761096E-02
  2.121524755988E-02  2.202977144329E-02  2.299377502615E-02  2.395992895069E-02
  2.507671004552E-02  2.613950145511E-02  2.733919373675E-02  2.869374138128E-02
  3.022353851670E-02  3.158903358855E-02  3.309479311351E-02  3.475560698140E-02
  3.658790167044E-02  3.860993587941E-02  4.084202183989E-02  4.266744347861E-02
  4.463417009207E-02  4.675357677570E-02  4.903801385040E-02  5.150089715550E-02
  5.415680702644E-02  5.702159666440E-02  6.011251059767E-02  6.344831389959E-02
  6.704943275597E-02  7.093810685293E-02  7.370218186186E-02  7.661247829693E-02
  7.967714609855E-02  8.290481072208E-02  8.630459963104E-02  8.988616962701E-02
  9.365973489109E-02  9.763609557348E-02  1.018266667253E-01  1.062435073169E-01
  1.108993490307E-01  1.158076244551E-01  1.209824942339E-01  1.264388726526E-01
  1.321924510564E-01  1.382597184083E-01  1.446579782022E-01  1.514053608478E-01
  1.585208305468E-01  1.660241855837E-01  1.739360508612E-01  1.822778614259E-01
  1.910718356581E-01  2.003409367438E-01  2.101088210137E-01  2.203997717247E-01
  2.312386168851E-01  2.426506297765E-01  2.546614109220E-01  2.608993957619E-01
  2.672967503681E-01  2.738567021277E-01  2.805824693068E-01  2.874772549169E-01
  2.945442402307E-01  3.017865779457E-01  3.092073849917E-01  3.168097349794E-01
  3.245966502888E-01  3.325710937932E-01  3.407359602173E-01  3.490940671251E-01
  3.576481455328E-01  3.664008301410E-01  3.753546491769E-01  3.845120138379E-01
  3.938752073202E-01  4.034463734167E-01  4.132275046627E-01  4.232204300011E-01
  4.334268019357E-01  4.438480831350E-01  4.544855324390E-01  4.653401902177E-01
  4.764128630205E-01  4.877041074472E-01  4.992142131649E-01  5.109431849850E-01
  5.228907239077E-01  5.350562070359E-01  5.474386662513E-01  5.600367655449E-01
  5.728487768891E-01  5.858725545407E-01  5.991055076668E-01  6.125445711939E-01
  6.261861747921E-01  6.400262099234E-01  6.540599949078E-01  6.682822379904E-01
  6.826869984288E-01  6.972676456682E-01  7.120168167242E-01  7.269263719546E-01
  7.419873494750E-01  7.571899185521E-01  7.725233323957E-01  7.879758808660E-01
  8.035348437159E-01  8.191864450894E-01  8.349158101077E-01  8.507069244783E-01
  8.665425981645E-01  8.824044342463E-01  8.982728041807E-01  9.141268307331E-01
  9.299443798867E-01  9.457020630449E-01  9.613752508132E-01  9.769380995769E-01
  9.923635919734E-01  1.007623592191E+00  1.022688916800E+00  1.037529421541E+00
  1.052114104160E+00  1.066411222978E+00  1.080388430458E+00  1.094012920510E+00
  1.107251587816E+00  1.120071196862E+00  1.132438557907E+00  1.144320706572E+00
  1.155685083328E+00  1.166499708793E+00  1.176733350519E+00  1.186355676862E+00
  1.195337393616E+00  1.203650359407E+00  1.211267676356E+00  1.218163753318E+00
  1.224314340044E+00  1.229696531890E+00  1.234288746225E+00  1.238070673405E+00
  1.241023207052E+00  1.243128360266E+00  1.244369176350E+00  1.244729644362E+00
  1.244194631336E+00  1.242749844121E+00  1.240381834384E+00  1.237078060210E+00
  1.232827016854E+00  1.227618447397E+00  1.221443641305E+00  1.214295825137E+00
  1.206170644978E+00  1.197066734688E+00  1.186986357949E+00  1.175936105711E+00
  1.163927624245E+00  1.150978343195E+00  1.137112168146E+00  1.122359773485E+00
  1.106757429132E+00  1.090344956601E+00  1.073165594464E+00  1.055266650134E+00
  1.036699143532E+00  1.017516416490E+00  9.977719445177E-01  9.775188006146E-01
  9.568098731327E-01  9.356975285344E-01  9.142334875270E-01  8.924686750075E-01
  8.704530804995E-01  8.482356264322E-01  8.258640446599E-01  8.033847616242E-01
  7.808427924960E-01  7.582816445779E-01  7.357432301777E-01  7.132677891036E-01
  6.908938208558E-01  6.686580265270E-01  6.465952603557E-01  6.247384908139E-01
  6.031187710515E-01  5.817652184657E-01  5.607050031111E-01  5.399633446248E-01
  5.195635172969E-01  4.995268628854E-01  4.798728107418E-01  4.606189047940E-01
  4.417808369082E-01  4.233724861415E-01  4.054059633849E-01  3.878916608918E-01
  3.708383061851E-01  3.542530198381E-01  3.381413766327E-01  3.225074696034E-01
  3.073539764995E-01  2.926822281682E-01  2.784922784797E-01  2.647829753048E-01
  2.515520321697E-01  2.387961002005E-01  2.265108399972E-01  2.146909931026E-01
  2.033304527555E-01  1.924223336440E-01  1.819590403983E-01  1.719323345905E-01
  1.623334000312E-01  1.531529061783E-01  1.443810694980E-01  1.360077126400E-01
  1.280223213079E-01  1.204140987420E-01  1.131720177156E-01  1.062848700113E-01
  9.974131332435E-02  9.352991557219E-02  8.763919659794E-02  8.205766727160E-02
  7.677386600224E-02  7.177639268555E-02  6.705394012038E-02  6.259532293596E-02
  5.838950407886E-02  5.442561891511E-02  5.069299700881E-02  4.718118164365E-02
  4.387994715836E-02  4.077931417141E-02  3.786956277394E-02  3.514124377345E-02
  3.258518807386E-02  3.019251428023E-02  2.795463461908E-02  2.586325926701E-02
  2.391039918239E-02  2.208836753581E-02  2.038977983606E-02  1.880755284868E-02
  1.733490240403E-02  1.596534019112E-02  1.469266963235E-02  1.351098093278E-02
  1.241464539518E-02  1.139830908961E-02  1.045688596337E-02  9.585550473606E-03
  8.779729820985E-03  8.035095859083E-03  7.347556749534E-03  6.713248428665E-03
  6.128525946649E-03  5.589954735521E-03  5.094301857668E-03  4.638527281664E-03
  4.219775227690E-03  3.835365620175E-03  3.482785680904E-03  3.159681691511E-03
  2.863850950230E-03  2.593233943851E-03  2.345906752185E-03  2.120073698902E-03
  1.914060259406E-03  1.726306233493E-03  1.555359187845E-03  1.399868170981E-03
  1.258577701142E-03  1.130322025638E-03  1.014019648541E-03  9.086681221693E-04
  8.133390965970E-04  7.271736204598E-04  6.493776855197E-04  5.792180068734E-04
  5.160180302535E-04  4.591541576007E-04  4.080521819412E-04  3.621839225780E-04
  3.210640516734E-04  2.842471034487E-04  2.513246574365E-04  2.219226874791E-04
  1.956990684551E-04  1.723412330274E-04  1.515639710281E-04  1.331073644170E-04
  1.167348510711E-04  1.022314109686E-04  8.940186862615E-05  7.806930592708E-05
  6.807357973820E-05  5.926993895589E-05  5.152773584838E-05  4.472922677035E-05
  3.876845752054E-05  3.355022879441E-05  2.898913735384E-05  2.500868869639E-05
  2.154047715894E-05  1.852342953706E-05  1.590310844324E-05  1.363107176500E-05
  1.166428472003E-05  9.964581139728E-06  8.498170745660E-06  7.235189316413E-06
  6.149288774789E-06  5.217264357516E-06  4.418716161661E-06  3.735742493479E-06
  3.152662576158E-06  2.655766302703E-06  2.233088848391E-06  1.874208083653E-06
  1.570062852337E-06  1.312790301713E-06  1.095580568859E-06  9.125472429645E-07
  7.586121340652E-07  6.294029857059E-07  5.211628716055E-07  4.306701144439E-07
  3.551676582258E-07  2.923009141953E-07  2.400631839096E-07  1.967478418149E-07
  1.609065335129E-07  1.313127149312E-07  1.069299218866E-07  8.688421918948E-08
  7.044033361519E-08  5.698102592910E-08  4.598930387715E-08  3.703312083914E-08
  2.975224388914E-08  2.384701052838E-08  1.906872556628E-08  1.521147873855E-08
  1.210518988371E-08  9.609712060260E-09  7.609844083280E-09  6.011122789064E-09
  4.736282091976E-09  3.722280760981E-09  2.917813987291E-09  2.281235402581E-09
  1.778826391931E-09  1.383358469455E-09  1.072902279660E-09  8.298435756910E-10
  6.400724186084E-10  4.923169420613E-10  3.775974270613E-10  2.887802163360E-10
  2.202142429153E-10  1.674357214079E-10  1.269289138835E-10  9.593288973478E-11
  7.228589857528E-11  5.430040971886E-11  4.066307858270E-11  3.035491231612E-11
  2.258775277770E-11  1.675389962480E-11  1.238628136827E-11  9.127066450217E-12
  6.703005774666E-12  4.906126408912E-12  3.578665110367E-12  2.601349890846E-12
  1.884316452983E-12  1.360091144304E-12  9.781890588004E-13  7.009700833822E-13
  5.004712143894E-13  3.559938264604E-13  2.522726324139E-13  1.780911931537E-13
  1.252389618280E-13  8.772856315233E-14  6.121060866670E-14  4.253787920469E-14
  2.944201286758E-14  2.029460061727E-14  1.393135707100E-14  9.523235745509E-15
  6.482340407585E-15  4.393525552727E-15  2.964871943838E-15  1.991991070659E-15
  1.332399355621E-15  8.872043119163E-16  5.880732119240E-16  3.880017411033E-16
  2.548039405781E-16  1.665421197257E-16  1.083334058460E-16  7.012864702533E-17
  4.517488661684E-17  2.895611397597E-17  1.846703025906E-17  1.171757790036E-17
  0.000000000000E+00  0.000000000000E+00  0.000000000000E+00  0.000000000000E+00
  0.000000000000E+00  0.000000000000E+00  0.000000000000E+00  0.000000000000E+00
  0.000000000000E+00  0.000000000000E+00  0.000000000000E+00  0.000000000000E+00
  0.000000000000E+00  0.000000000000E+00  0.000000000000E+00  0.000000000000E+00
  0.000000000000E+00  0.000000000000E+00  0.000000000000E+00  0.000000000000E+00
  0.000000000000E+00  0.000000000000E+00  0.000000000000E+00  0.000000000000E+00
  0.000000000000E+00  0.000000000000E+00  0.000000000000E+00  0.000000000000E+00
  0.000000000000E+00  0.000000000000E+00  0.000000000000E+00  0.000000000000E+00
  0.000000000000E+00  0.000000000000E+00  0.000000000000E+00  0.000000000000E+00
  0.000000000000E+00
</data>
</radfunc>
</valence-charge>
<pseudocore-charge matching-radius="1.03367279436"
 number-of-continuous-derivatives="4">
<annotation model-charge-form="Teter function with specified parameters" />
<radfunc>
<data npts="290">
  6.342415682602E+00  6.342019355241E+00  6.340834596519E+00  6.338858001864E+00
  6.336109835941E+00  6.332496248376E+00  6.327890707129E+00  6.322616864330E+00
  6.316686863196E+00  6.309771368497E+00  6.301976193309E+00  6.293503096572E+00
  6.283262490285E+00  6.272566784447E+00  6.259949067159E+00  6.247347409742E+00
  6.232835944298E+00  6.219080319341E+00  6.203616027279E+00  6.186235675345E+00
  6.166708002070E+00  6.149367683018E+00  6.130343816751E+00  6.109478746331E+00
  6.086601267210E+00  6.061525722830E+00  6.034051098685E+00  6.011740672357E+00
  5.987860969980E+00  5.962308453745E+00  5.934973806575E+00  5.905741777065E+00
  5.874491050636E+00  5.841094153635E+00  5.805417398140E+00  5.767320876348E+00
  5.726658514645E+00  5.683278198801E+00  5.652770247282E+00  5.620936053465E+00
  5.587726398235E+00  5.553091085603E+00  5.516979018532E+00  5.479338288052E+00
  5.440116276882E+00  5.399259778849E+00  5.356715135446E+00  5.312428390940E+00
  5.266345467499E+00  5.218412361821E+00  5.168575364834E+00  5.116781306012E+00
  5.062977823898E+00  5.007113664380E+00  4.949139008277E+00  4.889005829683E+00
  4.826668286489E+00  4.762083144312E+00  4.695210234959E+00  4.626012950297E+00
  4.554458772151E+00  4.480519838536E+00  4.404173546110E+00  4.325403188304E+00
  4.244198627992E+00  4.160557002972E+00  4.074483461758E+00  4.030538709144E+00
  3.985991926354E+00  3.940846353383E+00  3.895105877761E+00  3.848775059951E+00
  3.801859158867E+00  3.754364157450E+00  3.706296788222E+00  3.657664558746E+00
  3.608475776926E+00  3.558739576037E+00  3.508465939412E+00  3.457665724682E+00
  3.406350687448E+00  3.354533504303E+00  3.302227795049E+00  3.249448144017E+00
  3.196210120327E+00  3.142530296975E+00  3.088426268575E+00  3.033916667621E+00
  2.979021179105E+00  2.923760553317E+00  2.868156616659E+00  2.812232280303E+00
  2.756011546488E+00  2.699519512294E+00  2.642782370677E+00  2.585827408578E+00
  2.528683001918E+00  2.471378607244E+00  2.413944749868E+00  2.356413008255E+00
  2.298815994489E+00  2.241187330601E+00  2.183561620573E+00  2.125974417822E+00
  2.068462187993E+00  2.011062266880E+00  1.953812813318E+00  1.896752756896E+00
  1.839921740371E+00  1.783360056648E+00  1.727108580256E+00  1.671208693238E+00
  1.615702205412E+00  1.560631268995E+00  1.506038287602E+00  1.451965819666E+00
  1.398456476384E+00  1.345552814303E+00  1.293297222721E+00  1.241731806134E+00
  1.190898261971E+00  1.140837753967E+00  1.091590781514E+00  1.043197045440E+00
  9.956953106898E-01  9.491232664482E-01  9.035173843152E-01  8.589127751890E-01
  8.153430455798E-01  7.728401541356E-01  7.314342692164E-01  6.911536284103E-01
  6.520244009365E-01  6.140705539278E-01  5.773137236290E-01  5.417730925848E-01
  5.074652739201E-01  4.744042038398E-01  4.426010434856E-01  4.120640912930E-01
  3.827987069803E-01  3.548072482832E-01  3.280890215112E-01  3.026402469568E-01
  2.784540401209E-01  2.555204096404E-01  2.338262727080E-01  2.133554886579E-01
  1.940889112655E-01  1.760044601594E-01  1.590772115815E-01  1.432795085519E-01
  1.285810903043E-01  1.149492406463E-01  1.023489546856E-01  9.074312313372E-02
  8.009273316583E-02  7.035708457854E-02  6.149401975091E-02  5.346016568054E-02
  4.621118614184E-02  3.970204180148E-02  3.388725593016E-02  2.872118317744E-02
  2.415827872936E-02  2.015336505478E-02  1.666189336809E-02  1.364019689912E-02
  1.104573306904E-02  8.837311727183E-03  6.975306710826E-03  5.421848149813E-03
  4.140993150729E-03  3.098872761275E-03  2.263813432063E-03  1.606431557375E-03
  1.099700083580E-03  7.189866176718E-04  4.420629408944E-04  2.490863246069E-04
  1.225535467007E-04  4.722900549714E-05  1.004881152534E-05  3.192833936190E-09
  7.999963229893E-06  2.671216200152E-05  5.041326590122E-05  7.480358826439E-05
  9.683160665378E-05  1.145139920820E-04  1.267580450966E-04  1.331900753266E-04
  1.339929934311E-04  1.297560233518E-04  1.213389976831E-04  1.097531828278E-04
  9.606000980486E-05  8.128848049559E-05  6.637139948353E-05  5.209997171923E-05
  3.909572987766E-05  2.779823579417E-05  1.846655941923E-05  1.119219509957E-05
  5.920843441226E-06  2.480377271906E-06  6.123261805119E-07  4.353253170098E-09
  3.214508331683E-07  1.233933876063E-06  2.440738423386E-06  3.687012791398E-06
  4.775490858993E-06  5.571629391208E-06  6.002944171565E-06  6.053364948599E-06
  5.753723605294E-06  5.169676829498E-06  4.388435173853E-06  3.505624906967E-06
  2.613456745067E-06  1.791134253029E-06  1.098129492840E-06  5.706146376322E-07
  2.209985591927E-07  4.020914605412E-08  2.114009858184E-09  6.930645096449E-08
  1.994133437874E-07  3.511098160718E-07  4.891442347571E-07  5.878680128868E-07
  6.330019927106E-07  6.216235056777E-07  5.605933143873E-07  4.638300468263E-07
  3.489587456806E-07  2.338969506919E-07  1.338951990784E-07  5.942980391374E-08
  1.517551798582E-08  9.275552548945E-11  0.000000000000E+00  0.000000000000E+00
  0.000000000000E+00  0.000000000000E+00  0.000000000000E+00  0.000000000000E+00
  0.000000000000E+00  0.000000000000E+00  0.000000000000E+00  0.000000000000E+00
  0.000000000000E+00  0.000000000000E+00  0.000000000000E+00  0.000000000000E+00
  0.000000000000E+00  0.000000000000E+00  0.000000000000E+00  0.000000000000E+00
  0.000000000000E+00  0.000000000000E+00  0.000000000000E+00  0.000000000000E+00
  0.000000000000E+00  0.000000000000E+00  0.000000000000E+00  0.000000000000E+00
  0.000000000000E+00  0.000000000000E+00  0.000000000000E+00  0.000000000000E+00
  0.000000000000E+00  0.000000000000E+00  0.000000000000E+00  0.000000000000E+00
  0.000000000000E+00  0.000000000000E+00  0.000000000000E+00  0.000000000000E+00
  0.000000000000E+00  0.000000000000E+00  0.000000000000E+00  0.000000000000E+00
  0.000000000000E+00  0.000000000000E+00  0.000000000000E+00  0.000000000000E+00
  0.000000000000E+00  0.000000000000E+00
</data>
</radfunc>
</pseudocore-charge>
<semilocal-potentials set="scalar_relativistic">
<slps n="3" l="s" rc="1.46089145447" eref="-0.513364138038">
<radfunc>
<data npts="290">
  2.855888092573E+01  2.855019460619E+01  2.852424814047E+01  2.848102668532E+01
  2.842107108888E+01  2.834247737179E+01  2.824270607987E+01  2.812899969929E+01
  2.800183247762E+01  2.785444066951E+01  2.768946117675E+01  2.751151343142E+01
  2.729833773433E+01  2.707786725672E+01  2.682059326811E+01  2.656663442517E+01
  2.627781514735E+01  2.600755381084E+01  2.570772106997E+01  2.537568005846E+01
  2.500870296557E+01  2.468809690144E+01  2.434191602411E+01  2.396873899821E+01
  2.356717803654E+01  2.313590324176E+01  2.267367030667E+01  2.230599560949E+01
  2.191984775498E+01  2.151486129447E+01  2.109073626188E+01  2.064724768975E+01
  2.018425539883E+01  1.970171394892E+01  1.919968262189E+01  1.867833529105E+01
  1.813797001522E+01  1.757901818197E+01  1.719633475821E+01  1.680584879769E+01
  1.640779721855E+01  1.600244818180E+01  1.559010176753E+01  1.517109051963E+01
  1.474577984492E+01  1.431456825238E+01  1.387788741775E+01  1.343620205798E+01
  1.299000959983E+01  1.253983962571E+01  1.208625307977E+01  1.162984121580E+01
  1.117122426834E+01  1.071104982715E+01  1.024999089467E+01  9.788743605659E+00
  9.328024587687E+00  8.868567941462E+00  8.411121820467E+00  7.956444590862E+00
  7.505300554889E+00  7.058455224569E+00  6.616670137595E+00  6.180697214162E+00
  5.751272662678E+00  5.329110453926E+00  4.914895397966E+00  4.710972299125E+00
  4.509275876089E+00  4.309880247336E+00  4.112856301844E+00  3.918271455975E+00
  3.726189410812E+00  3.536669911273E+00  3.349768508508E+00  3.165536327192E+00
  2.984019839503E+00  2.805260647799E+00  2.629295278038E+00  2.456154986259E+00
  2.285865580633E+00  2.118447261570E+00  1.953914482788E+00  1.792275836132E+00
  1.633533963280E+00  1.477685497425E+00  1.324721038195E+00  1.174625163119E+00
  1.027376478984E+00  8.829477163917E-01  7.413058707299E-01  6.024123930259E-01
  4.662234329052E-01  3.326901378452E-01  2.017590093894E-01  7.337232007612E-02
 -5.253140827920E-02 -1.760168634793E-01 -2.971513385592E-01 -4.160040645190E-01
 -5.326454811771E-01 -6.471464482862E-01 -7.595774000396E-01 -8.700074472713E-01
 -9.785034329256E-01 -1.085128947842E+00 -1.189943315316E+00 -1.293000554649E+00
 -1.394348335505E+00 -1.494026936923E+00 -1.592068226655E+00 -1.688494678629E+00
 -1.783318448508E+00 -1.876540529437E+00 -1.968150012324E+00 -2.058123477059E+00
 -2.146424543076E+00 -2.233003609231E+00 -2.317797814033E+00 -2.400731247695E+00
 -2.481715446578E+00 -2.560650198560E+00 -2.637424683793E+00 -2.711918969263E+00
 -2.784005866911E+00 -2.853553153785E+00 -2.920426138883E+00 -2.984490545001E+00
 -3.045615656143E+00 -3.103677662532E+00 -3.158563117844E+00 -3.210172408351E+00
 -3.258423123289E+00 -3.303253211551E+00 -3.344623812569E+00 -3.382521659593E+00
 -3.416960970051E+00 -3.447984758672E+00 -3.475665531100E+00 -3.500105335634E+00
 -3.521435165240E+00 -3.539813708849E+00 -3.555425449958E+00 -3.568478102887E+00
 -3.579199366293E+00 -3.587832963950E+00 -3.594633939273E+00 -3.599863176792E+00
 -3.603781143334E+00 -3.606640875256E+00 -3.608680284107E+00 -3.610113909842E+00
 -3.611124312820E+00 -3.611853360833E+00 -3.612393728587E+00 -3.612780981512E+00
 -3.612986658401E+00 -3.612912794518E+00 -3.612388334756E+00 -3.611167871631E+00