<?xml version="1.0" encoding="UTF-8" ?>
<psml version="1.1" energy_unit="hartree" length_unit="bohr"
 uuid="206972b0-be42-11e7-579b-1282fffb1a56"
 xmlns="http://esl.cecam.org/PSML/ns/1.1">
<provenance creator="ONCVPSP-3.3.0+psml-3.3.0-73 (scalar-relativistic)"
 date="2017-10-31">
<annotation action="semilocal-pseudopotential-generation"
 action-cont="projectors-generation" />
<input-file name="oncvpsp-input">
<![CDATA[# atsym z nc nv iexc psfile
Ga 31 5 3 4 upf
# n l f
1 0 2.0
2 0 2.0
2 1 6.0
3 0 2.0
3 1 6.0
3 2 10.0
4 0 2.0
4 1 1.0
# lmax
2
# l rc ep ncon nbas qcut
0 1.65 0.0 4 8 4.4
1 1.75 0.0 4 8 5.8
2 1.9 0.0 4 9 9.0
# lloc lpopt rc5 dvloc0
4 5 1.6 0.0
# l nproj debl
0 2 3.0
1 2 3.0
2 2 2.0
# icmod fcfact rcfact
3 5.0 1.4
# epsh1 epsh2 depsh
-12.0 12.0 0.02
# rlmax drl
6.0 0.01
 0
]]>
</input-file>
</provenance>
<pseudo-atom-spec atomic-label="Ga" atomic-number="31" z-pseudo="13"
 flavor="Hamann&apos;s oncvpsp" relativity="scalar" spin-dft="no"
 core-corrections="yes">
<annotation pseudo-energy="-67.0146691064" />
<exchange-correlation>
<annotation oncvpsp-xc-code="4" oncvpsp-xc-type="GGA -- Perdew-Burke-Ernzerhof" />
<libxc-info number-of-functionals="2">
<functional name="Perdew, Burke &amp; Ernzerhof (GGA)" type="exchange" id="101" />
<functional name="Perdew, Burke &amp; Ernzerhof (GGA)" type="correlation"
 id="130" />
</libxc-info>
</exchange-correlation>
<valence-configuration total-valence-charge="13">
<shell n="3" l="d" occupation="10" />
<shell n="4" l="s" occupation="2" />
<shell n="4" l="p" occupation="1" />
</valence-configuration>
</pseudo-atom-spec>
<grid npts="458">
<annotation type="sampled from oncvpsp log grid"
 recipe="r(i:1..N) = r1*exp(a*(i-1)) + r=0; resampled"
 recipe-cont="r1: scale; a: step" scale="0.161290322581E-04"
 step="0.119285708653E-01" delta="0.500000000000E-02" rmax="44.3593682749" />
<grid-data>
  0.000000000000E+00  5.005354308404E-03  1.011777605404E-02  1.517827746610E-02
  2.020946365338E-02  2.535038301076E-02  3.068122710716E-02  3.582773785855E-02
  4.085121947787E-02  4.602673310278E-02  5.124302544502E-02  5.637400155005E-02
  6.201874349076E-02  6.741965885400E-02  7.242185184910E-02  7.779518191586E-02
  8.356718552202E-02  8.870300612650E-02  9.415446082966E-02  9.994094767748E-02
  1.060830568691E-01  1.112674348058E-01  1.167051781279E-01  1.224086690381E-01
  1.283908948690E-01  1.346654776560E-01  1.412467051564E-01  1.463928491930E-01
  1.517264864416E-01  1.572544479790E-01  1.629838137635E-01  1.689219217026E-01
  1.750763770511E-01  1.814550621518E-01  1.880661465305E-01  1.949180973592E-01
  2.020196903006E-01  2.093800207477E-01  2.144352919686E-01  2.196126176579E-01
  2.249149446987E-01  2.303452911235E-01  2.359067478323E-01  2.416024803520E-01
  2.474357306376E-01  2.534098189181E-01  2.595281455861E-01  2.657941931331E-01
  2.722115281321E-01  2.787838032674E-01  2.855147594134E-01  2.924082277647E-01
  2.994681320159E-01  3.066984905953E-01  3.141034189522E-01  3.216871318994E-01
  3.294539460120E-01  3.374082820845E-01  3.455546676471E-01  3.538977395428E-01
  3.624422465663E-01  3.711930521674E-01  3.801551372189E-01  3.893336028520E-01
  3.987336733592E-01  4.083606991688E-01  4.182201598895E-01  4.232388018082E-01
  4.283176674299E-01  4.334574794391E-01  4.386589691923E-01  4.439228768226E-01
  4.492499513445E-01  4.546409507606E-01  4.600966421698E-01  4.656178018758E-01
  4.712052154983E-01  4.768596780843E-01  4.825819942213E-01  4.883729781520E-01
  4.942334538898E-01  5.001642553365E-01  5.061662264005E-01  5.122402211173E-01
  5.183871037707E-01  5.246077490160E-01  5.309030420042E-01  5.372738785082E-01
  5.437211650503E-01  5.502458190309E-01  5.568487688593E-01  5.635309540856E-01
  5.702933255346E-01  5.771368454410E-01  5.840624875863E-01  5.910712374374E-01
  5.981640922866E-01  6.053420613940E-01  6.126061661308E-01  6.199574401243E-01
  6.273969294058E-01  6.349256925587E-01  6.425448008694E-01  6.502553384798E-01
  6.580584025416E-01  6.659551033721E-01  6.739465646126E-01  6.820339233879E-01
  6.902183304686E-01  6.985009504342E-01  7.068829618394E-01  7.153655573815E-01
  7.239499440701E-01  7.326373433989E-01  7.414289915197E-01  7.503261394179E-01
  7.593300530909E-01  7.684420137280E-01  7.776633178928E-01  7.869952777075E-01
  7.964392210400E-01  8.059964916924E-01  8.156684495928E-01  8.254564709879E-01
  8.353619486397E-01  8.453862920234E-01  8.555309275277E-01  8.657972986580E-01
  8.761868662419E-01  8.867011086368E-01  8.973415219405E-01  9.081096202037E-01
  9.190069356462E-01  9.300350188739E-01  9.411954391004E-01  9.524897843696E-01
  9.639196617821E-01  9.754866977235E-01  9.871925380961E-01  9.990388485533E-01
  1.011027314736E+00  1.023159642513E+00  1.035437558223E+00  1.047862808922E+00
  1.060437162629E+00  1.073162408580E+00  1.086040357483E+00  1.099072841773E+00
  1.112261715874E+00  1.125608856465E+00  1.139116162742E+00  1.152785556695E+00
  1.166618983376E+00  1.180618411176E+00  1.194785832110E+00  1.209123262095E+00
  1.223632741241E+00  1.238316334136E+00  1.253176130145E+00  1.268214243707E+00
  1.283432814631E+00  1.298834008407E+00  1.314420016508E+00  1.330193056706E+00
  1.346155373386E+00  1.362309237867E+00  1.378656948721E+00  1.395200832106E+00
  1.411943242091E+00  1.428886560996E+00  1.446033199728E+00  1.463385598125E+00
  1.480946225303E+00  1.498717580006E+00  1.516702190966E+00  1.534902617258E+00
  1.553321448665E+00  1.571961306049E+00  1.590824841722E+00  1.609914739822E+00
  1.629233716700E+00  1.648784521301E+00  1.668569935556E+00  1.688592774783E+00
  1.708855888080E+00  1.729362158737E+00  1.750114504642E+00  1.771115878698E+00
  1.792369269242E+00  1.813877700473E+00  1.835644232879E+00  1.857671963673E+00
  1.879964027237E+00  1.902523595564E+00  1.925353878711E+00  1.948458125255E+00
  1.971839622759E+00  1.995501698232E+00  2.019447718610E+00  2.043681091234E+00
  2.068205264329E+00  2.093023727500E+00  2.118140012230E+00  2.143557692377E+00
  2.169280384686E+00  2.195311749302E+00  2.221655490294E+00  2.248315356177E+00
  2.275295140451E+00  2.302598682137E+00  2.330229866322E+00  2.358192624718E+00
  2.386490936215E+00  2.415128827449E+00  2.444110373379E+00  2.473439697859E+00
  2.503120974234E+00  2.533158425924E+00  2.563556327036E+00  2.594319002960E+00
  2.625450830996E+00  2.656956240967E+00  2.688839715859E+00  2.721105792449E+00
  2.753759061959E+00  2.786804170702E+00  2.820245820751E+00  2.854088770600E+00
  2.888337835847E+00  2.922997889877E+00  2.958073864556E+00  2.993570750930E+00
  3.029493599941E+00  3.065847523141E+00  3.102637693418E+00  3.139869345739E+00
  3.177547777888E+00  3.215678351223E+00  3.254266491438E+00  3.293317689335E+00
  3.332837501607E+00  3.372831551626E+00  3.413305530246E+00  3.454265196609E+00
  3.495716378968E+00  3.537664975516E+00  3.580116955222E+00  3.623078358684E+00
  3.666555298989E+00  3.710553962577E+00  3.755080610127E+00  3.800141577449E+00
  3.845743276378E+00  3.891892195695E+00  3.938594902043E+00  3.985858040868E+00
  4.033688337358E+00  4.082092597406E+00  4.131077708575E+00  4.180650641078E+00
  4.230818448771E+00  4.281588270156E+00  4.332967329398E+00  4.384962937351E+00
  4.437582492599E+00  4.490833482510E+00  4.544723484301E+00  4.599260166112E+00
  4.654451288106E+00  4.710304703563E+00  4.766828360006E+00  4.824030300326E+00
  4.881918663930E+00  4.940501687897E+00  4.999787708151E+00  5.059785160649E+00
  5.120502582577E+00  5.181948613568E+00  5.244131996931E+00  5.307061580894E+00
  5.370746319865E+00  5.435195275703E+00  5.500417619012E+00  5.566422630440E+00
  5.633219702005E+00  5.700818338429E+00  5.769228158490E+00  5.838458896392E+00
  5.908520403149E+00  5.979422647987E+00  6.051175719762E+00  6.123789828400E+00
  6.197275306340E+00  6.271642610016E+00  6.346902321337E+00  6.423065149193E+00
  6.500141930983E+00  6.578143634155E+00  6.657081357765E+00  6.736966334058E+00
  6.817809930066E+00  6.899623649227E+00  6.982419133018E+00  7.066208162614E+00
  7.151002660566E+00  7.236814692492E+00  7.323656468802E+00  7.411540346428E+00
  7.500478830585E+00  7.590484576552E+00  7.681570391471E+00  7.773749236168E+00
  7.867034227002E+00  7.961438637726E+00  8.056975901379E+00  8.153659612196E+00
  8.251503527542E+00  8.350521569872E+00  8.450727828711E+00  8.552136562655E+00
  8.654762201407E+00  8.758619347824E+00  8.863722779998E+00  8.970087453358E+00
  9.077728502798E+00  9.186661244832E+00  9.296901179770E+00  9.408463993927E+00
  9.521365561854E+00  9.635621948597E+00  9.751249411980E+00  9.868264404924E+00
  9.986683577783E+00  1.010652378072E+01  1.022780206608E+01  1.035053569088E+01
  1.047474211917E+01  1.060043902460E+01  1.072764429289E+01  1.085637602441E+01
  1.098665253670E+01  1.111849236714E+01  1.125191427555E+01  1.138693724685E+01
  1.152358049382E+01  1.166186345974E+01  1.180180582126E+01  1.194342749111E+01
  1.208674862101E+01  1.223178960446E+01  1.237857107971E+01  1.252711393267E+01
  1.267743929986E+01  1.282956857146E+01  1.298352339432E+01  1.313932567505E+01
  1.329699758315E+01  1.345656155415E+01  1.361804029280E+01  1.378145677631E+01
  1.394683425763E+01  1.411419626872E+01  1.428356662394E+01  1.445496942343E+01
  1.462842905651E+01  1.480397020519E+01  1.498161784765E+01  1.516139726182E+01
  1.534333402896E+01  1.552745403731E+01  1.571378348576E+01  1.590234888759E+01
  1.609317707424E+01  1.628629519913E+01  1.648173074152E+01  1.667951151042E+01
  1.687966564854E+01  1.708222163633E+01  1.728720829596E+01  1.749465479551E+01
  1.770459065306E+01  1.791704574090E+01  1.813205028979E+01  1.834963489327E+01
  1.856983051198E+01  1.879266847813E+01  1.901818049987E+01  1.924639866586E+01
  1.947735544985E+01  1.971108371525E+01  1.994761671984E+01  2.018698812047E+01
  2.042923197792E+01  2.067438276165E+01  2.092247535479E+01  2.117354505905E+01
  2.142762759976E+01  2.168475913096E+01  2.194497624053E+01  2.220831595542E+01
  2.247481574688E+01  2.274451353584E+01  2.301744769827E+01  2.329365707065E+01
  2.357318095550E+01  2.385605912697E+01  2.414233183649E+01  2.443203981853E+01
  2.472522429635E+01  2.502192698791E+01  2.532219011176E+01  2.562605639310E+01
  2.593356906982E+01  2.624477189866E+01  2.655970916144E+01  2.687842567138E+01
  2.720096677944E+01  2.752737838079E+01  2.785770692136E+01  2.819199940441E+01
  2.853030339727E+01  2.887266703803E+01  2.921913904249E+01  2.956976871100E+01
  2.992460593553E+01  3.028370120676E+01  3.064710562124E+01  3.101487088870E+01
  3.138704933936E+01  3.176369393143E+01  3.214485825861E+01  3.253059655771E+01
  3.292096371640E+01  3.331601528100E+01  3.371580746437E+01  3.412039715395E+01
  3.452984191979E+01  3.494420002283E+01  3.536353042311E+01  3.578789278818E+01
  3.621734750164E+01  3.665195567166E+01  3.709177913972E+01  3.753688048940E+01
  3.798732305527E+01  3.844317093193E+01  3.890448898312E+01  3.937134285091E+01
  3.984379896512E+01  4.032192455271E+01  4.080578764734E+01  4.129545709911E+01
  4.179100258430E+01  4.229249461531E+01  4.280000455069E+01  4.331360460530E+01
  4.383336786056E+01  4.435936827489E+01
</grid-data>
</grid>
<valence-charge total-charge="13" is-unscreening-charge="yes"
 rescaled-to-z-pseudo="no">
<radfunc>
<data npts="458">
  8.485516831349E-04  8.510811657632E-04  8.646247590665E-04  9.060857894502E-04
  1.003157024591E-03  1.200533620690E-03  1.566777823913E-03  2.143781436995E-03
  2.993195974043E-03  4.251461541157E-03  6.014519426001E-03  8.344192463177E-03
  1.173266861677E-02  1.593879169094E-02  2.081883141049E-02  2.727686519732E-02
  3.581883913343E-02  4.500313007729E-02  5.658550619112E-02  7.118286504591E-02
  8.956644682319E-02  1.076385401232E-01  1.293440989313E-01  1.553956416805E-01
  1.866392984374E-01  2.240778386827E-01  2.688969911159E-01  3.081872636910E-01
  3.530900269371E-01  4.043711332555E-01  4.628924055626E-01  5.296216275041E-01
  6.056430694801E-01  6.921684367999E-01  7.905480748993E-01  9.022822028965E-01
  1.029031868938E+00  1.172629226847E+00  1.278706728488E+00  1.393804910564E+00
  1.518603839673E+00  1.653821748686E+00  1.800215095472E+00  1.958578205605E+00
  2.129742420629E+00  2.314574664637E+00  2.513975332892E+00  2.728875396910E+00
  2.960232611249E+00  3.209026698290E+00  3.476253378943E+00  3.762917109845E+00
  4.070022381632E+00  4.398563428953E+00  4.749512201531E+00  5.123804447685E+00
  5.522323768066E+00  5.945883508987E+00  6.395206382678E+00  6.870901727310E+00
  7.373440353961E+00  7.903126972203E+00  8.460070241987E+00  9.044150568373E+00
  9.654985838547E+00  1.029189539856E+01  1.095386268100E+01  1.129382404952E+01
  1.163949702467E+01  1.199064303508E+01  1.234699537273E+01  1.270825805065E+01
  1.307410469630E+01  1.344417749052E+01  1.381808616240E+01  1.419540705123E+01
  1.457568224764E+01  1.495841882637E+01  1.534308818416E+01  1.572912549661E+01
  1.611592930870E+01  1.650286127401E+01  1.688924605833E+01  1.727437142358E+01
  1.765748850842E+01  1.803781232193E+01  1.841452246686E+01  1.878676410889E+01
  1.915364920792E+01  1.951425802701E+01  1.986764093397E+01  2.021282050940E+01
  2.054879397425E+01  2.087453594805E+01  2.118900154774E+01  2.149112983445E+01
  2.177984761378E+01  2.205407359216E+01  2.231272288889E+01  2.255471190035E+01
  2.277896350886E+01  2.298441262508E+01  2.317001204815E+01  2.333473862343E+01
  2.347759967267E+01  2.359763966632E+01  2.369394710243E+01  2.376566155089E+01
  2.381198081653E+01  2.383216816857E+01  2.382555957864E+01  2.379157090414E+01
  2.372970494835E+01  2.363955832410E+01  2.352082804336E+01  2.337331775126E+01
  2.319694352008E+01  2.299173911661E+01  2.275786065481E+01  2.249559054585E+01
  2.220534065857E+01  2.188765460605E+01  2.154320907771E+01  2.117281414225E+01
  2.077741245358E+01  2.035807730103E+01  1.991600945573E+01  1.945253277711E+01
  1.896908855784E+01  1.846722860087E+01  1.794860703904E+01  1.741497092648E+01
  1.686814964973E+01  1.631004322683E+01  1.574260958294E+01  1.516785091145E+01
  1.458779924952E+01  1.400450141630E+01  1.342000347972E+01  1.283633493376E+01
  1.225549278189E+01  1.167942573279E+01  1.111001872231E+01  1.054907797885E+01
  9.998316849272E+00  9.459342597239E+00  8.933644376569E+00  8.422582567760E+00
  7.927379647078E+00  7.449112734144E+00  6.988707936413E+00  6.546936577779E+00
  6.124413364276E+00  5.721596503416E+00  5.338789755845E+00  4.976146359863E+00
  4.633674731898E+00  4.311245810435E+00  4.008601878268E+00  3.725366669318E+00
  3.461056542635E+00  3.215092488400E+00  2.986812719368E+00  2.775485596791E+00
  2.580322642391E+00  2.400491397540E+00  2.235127906895E+00  2.083348625733E+00
  1.944261577213E+00  1.816976616625E+00  1.700614693080E+00  1.594316033627E+00
  1.497247209098E+00  1.408607073624E+00  1.327631599541E+00  1.253597655288E+00
  1.185825794990E+00  1.123682144356E+00  1.066579478036E+00  1.013977588816E+00
  9.653830494897E-01  9.203484645522E-01  8.784713018988E-01  8.393922149316E-01
  8.027923817788E-01  7.683902320107E-01  7.359390668104E-01  7.052249686439E-01
  6.760640169252E-01  6.482994140283E-01  6.217990296687E-01  5.964531816016E-01
  5.721723277221E-01  5.488848755719E-01  5.265343248087E-01  5.050737117090E-01
  4.844593763771E-01  4.646499205760E-01  4.456069580404E-01  4.272945222583E-01
  4.096789830291E-01  3.927288923185E-01  3.764148426735E-01  3.607093314212E-01
  3.455866306132E-01  3.310226627834E-01  3.169948825429E-01  3.034821640126E-01
  2.904646940658E-01  2.779238713304E-01  2.658422108791E-01  2.542032545128E-01
  2.429914865285E-01  2.321922548471E-01  2.217916973415E-01  2.117766732486E-01
  2.021346994638E-01  1.928538915636E-01  1.839229093728E-01  1.753309068896E-01
  1.670674863780E-01  1.591226564355E-01  1.514867938380E-01  1.441506089688E-01
  1.371051146322E-01  1.303415980590E-01  1.238515959096E-01  1.176268720843E-01
  1.116593981530E-01  1.059413362223E-01  1.004650240590E-01  9.522296229928E-02
  9.020780356900E-02  8.541234335886E-02  8.082951249330E-02  7.645237104302E-02
  7.227410353665E-02  6.828801533323E-02  6.448753002406E-02  6.086618773885E-02
  5.741764423777E-02  5.413567067773E-02  5.101415394769E-02  4.804709747452E-02
  4.522862240724E-02  4.255296909406E-02  4.001449877309E-02  3.760769540354E-02
  3.532716757086E-02  3.316765040504E-02  3.112400745747E-02  2.919123248762E-02
  2.736445111638E-02  2.563892230888E-02  2.401003965457E-02  2.247333241811E-02
  2.102446633915E-02  1.965924416455E-02  1.837360590050E-02  1.716362877750E-02
  1.602552692127E-02  1.495565073565E-02  1.395048599464E-02  1.300665265317E-02
  1.212090338525E-02  1.129012186104E-02  1.051132077671E-02  9.781639652398E-03
  9.098342415452E-03  8.458814786749E-03  7.860561489081E-03  7.301203296943E-03
  6.778473947379E-03  6.290216931569E-03  5.834382186639E-03  5.409022706801E-03
  5.012291092360E-03  4.642436054449E-03  4.297798892491E-03  3.976809960498E-03
  3.677985137287E-03  3.399922314626E-03  3.141297916258E-03  2.900863459552E-03
  2.677442170472E-03  2.469925661372E-03  2.277270680032E-03  2.098495937266E-03
  1.932679019398E-03  1.778953390872E-03  1.636505491356E-03  1.504571930752E-03
  1.382436784744E-03  1.269428992686E-03  1.164919858956E-03  1.068320658232E-03
  9.790803445440E-04  8.966833634491E-04  8.206475661695E-04  7.505222241354E-04
  6.858861419957E-04  6.263458668411E-04  5.715339911146E-04  5.211075464509E-04
  4.747464854990E-04  4.321522486282E-04  3.930464122978E-04  3.571694157847E-04
  3.242793629001E-04  2.941508952964E-04  2.665741339506E-04  2.413536854266E-04
  2.183077095462E-04  1.972670451495E-04  1.780743906903E-04  1.605835364918E-04
  1.446586455834E-04  1.301735801313E-04  1.170112706546E-04  1.050631249693E-04
  9.422847599191E-05  8.441405862656E-05  7.553353528981E-05  6.750702390632E-05
  6.026068088727E-05  5.372630189485E-05  4.784094109008E-05  4.254655862498E-05
  3.778968936351E-05  3.352113105304E-05  2.969565128120E-05  2.627171199846E-05
  2.321121052348E-05  2.047923604034E-05  1.804384068027E-05  1.587582435607E-05
  1.394853258591E-05  1.223766660338E-05  1.072110510466E-05  9.378737030703E-06
  8.192304823738E-06  7.145257632959E-06  6.222613975549E-06  5.410833385808E-06
  4.697696608324E-06  4.072193911139E-06  3.524421112249E-06  3.045482928070E-06
  2.627403266070E-06  2.263042096090E-06  1.946018546158E-06  1.670639879267E-06
  1.431836017806E-06  1.225099292310E-06  1.046429101118E-06  8.922811774877E-07
  7.595211708154E-07  6.453822588954E-07  5.474265186494E-07  4.635097934858E-07
  3.917498063714E-07  3.304972788149E-07  2.783098272019E-07  2.339284192686E-07
  1.962561848724E-07  1.643393865768E-07  1.373503668462E-07  1.145722997891E-07
  9.538558634197E-08  7.925574249717E-08  6.572264060463E-08  5.439097386949E-08
  4.492182389870E-08  3.702522048248E-08  3.045359171008E-08  2.499601099433E-08
  2.047315560220E-08  1.673289885276E-08  1.364646524503E-08  1.110508441927E-08
  9.017086040669E-09  7.305383434646E-09  5.905299108604E-09  4.762690182255E-09
  3.832336233375E-09  3.076556166865E-09  2.464024452039E-09  1.968760466532E-09
  1.569267756299E-09  1.247802791125E-09  9.897552849927E-10  7.831243816695E-10
  6.180769981344E-10  4.865763919481E-10  3.820705921861E-10  2.992317252281E-10
  2.337384936083E-10  1.820951443497E-10  1.414812077460E-10  1.096271123881E-10
  8.471150024555E-11  6.527668867557E-11  5.015926519581E-11  3.843326560015E-11
  2.936378547415E-11  2.236921745942E-11  1.699059897601E-11  1.286680402992E-11
  9.714523985685E-12  7.312160895502E-12  5.486907671907E-12  4.104416050185E-12
  3.060559396139E-12  2.274886017183E-12  1.685432373916E-12  1.244626754666E-12
  9.160645410128E-13  6.719778539394E-13  4.912565789029E-13  3.579057608971E-13
  2.598471875444E-13  1.879915278472E-13  1.355224140388E-13  9.734597965937E-14
  6.966909216031E-14  4.967735794067E-14  3.529017110545E-14  2.497505536518E-14
  1.760746442289E-14  1.236530520583E-14  8.649883730526E-15  6.026880842138E-15
  4.182453190842E-15  2.890711221815E-15  1.989721027719E-15  1.363866922417E-15
  9.309413613742E-16  6.327339014041E-16  4.281993265078E-16  2.885189343202E-16
  1.935455530948E-16  1.292556051191E-16  8.593089480822E-17  5.686684748883E-17
  3.745886070703E-17  2.455901316094E-17  1.602517704775E-17  1.040650136463E-17
  6.724971931709E-18  4.324468130447E-18  2.766955961933E-18  0.000000000000E+00
  0.000000000000E+00  0.000000000000E+00  0.000000000000E+00  0.000000000000E+00
  0.000000000000E+00  0.000000000000E+00
</data>
</radfunc>
</valence-charge>
<pseudocore-charge matching-radius="0.698500950434"
 number-of-continuous-derivatives="4">
<annotation model-charge-form="Teter function with specified parameters" />
<radfunc>
<data npts="291">
  1.225779399441E+02  1.225677940659E+02  1.225364886418E+02  1.224846731535E+02
  1.224126402568E+02  1.223179394449E+02  1.221972687902E+02  1.220591238613E+02
  1.219038372461E+02  1.217228053928E+02  1.215188249606E+02  1.212972005862E+02
  1.210294778317E+02  1.207500129161E+02  1.204709816393E+02  1.201497592517E+02
  1.197800991154E+02  1.194299347277E+02  1.190365557765E+02  1.185947925058E+02
  1.180989006110E+02  1.176589557496E+02  1.171767318290E+02  1.166483604648E+02
  1.160696601584E+02  1.154361197311E+02  1.147428829442E+02  1.141806563653E+02
  1.135795887570E+02  1.129372251382E+02  1.122509904738E+02  1.115181894906E+02
  1.107360076315E+02  1.099015133679E+02  1.090116621158E+02  1.080633020335E+02
  1.070531820068E+02  1.059779621636E+02  1.052232984645E+02  1.044371576705E+02
  1.036185035510E+02  1.027662937869E+02  1.018794833126E+02  1.009570280689E+02
  9.999788919956E+01  9.900103772013E+01  9.796545968946E+01  9.689016191493E+01
  9.577417822055E+01  9.461657630680E+01  9.341646522927E+01  9.217300352065E+01
  9.088540797795E+01  8.955296313233E+01  8.817503141433E+01  8.675106402091E+01
  8.528061248324E+01  8.376334092557E+01  8.219903899469E+01  8.058763542770E+01
  7.892921221162E+01  7.722401927238E+01  7.547248961289E+01  7.367525479941E+01
  7.183316067325E+01  6.994728313991E+01  6.801894386123E+01  6.703933508330E+01
  6.604972564691E+01  6.505035664586E+01  6.404148731132E+01  6.302339542768E+01
  6.199637772892E+01  6.096075027255E+01  5.991684878849E+01  5.886502899977E+01
  5.780566691226E+01  5.673915906991E+01  5.566592277243E+01  5.458639625191E+01
  5.350103880478E+01  5.241033087568E+01  5.131477408918E+01  5.021489122599E+01
  4.911122613945E+01  4.800434360863E+01  4.689482912404E+01  4.578328860204E+01
  4.467034802407E+01  4.355665299685E+01  4.244286822974E+01  4.132967692568E+01
  4.021778008199E+01  3.910789569787E+01  3.800075788533E+01  3.689711588062E+01
  3.579773295372E+01  3.470338521331E+01  3.361486030575E+01  3.253295600620E+01
  3.145847870130E+01  3.039224176275E+01  2.933506381204E+01  2.828776687733E+01
  2.725117444373E+01  2.622610939966E+01  2.521339188211E+01  2.421383702509E+01
  2.322825261598E+01  2.225743666597E+01  2.130217490123E+01  2.036323818317E+01
  1.944137986658E+01  1.853733310613E+01  1.765180812245E+01  1.678548944047E+01
  1.593903311354E+01  1.511306394836E+01  1.430817274649E+01  1.352491357964E+01
  1.276380111661E+01  1.202530802104E+01  1.130986243971E+01  1.061784560206E+01
  9.949589552128E+00  9.305375034509E+00  8.685429556462E+00  8.089925648101E+00
  7.518979342685E+00  6.972648898611E+00  6.450933784094E+00  5.953773944660E+00
  5.481049372400E+00  5.032579994448E+00  4.608125896376E+00  4.207387894066E+00
  3.830008465177E+00  3.475573048583E+00  3.143611717031E+00  2.833601224920E+00
  2.544967429383E+00  2.277088078946E+00  2.029295959847E+00  1.800882385759E+00
  1.591101012161E+00  1.399171952046E+00  1.224286165055E+00  1.065610087610E+00
  9.222904672362E-01  7.934593600898E-01  6.782392468512E-01  5.757482187126E-01
  4.851051822239E-01  4.054350294174E-01  3.358737179627E-01  2.755732052117E-01
  2.237061799499E-01  1.794705365527E-01  1.420935380948E-01  1.108356178271E-01
  8.499377232832E-02  6.390450455648E-02  4.694628093376E-02  3.354147344911E-02
  2.315776545890E-02  1.530900830133E-02  9.555524866390E-03  5.503865708395E-03
  2.806032955436E-03  1.158196937059E-03  2.989398803414E-04  7.069963301012E-06
  9.905720683108E-05  4.261498777711E-04  8.712360236581E-04  1.345519242293E-03
  1.785080615518E-03  2.147399756119E-03  2.407907028987E-03  2.556636170308E-03
  2.595041764319E-03  2.533039438559E-03  2.386318370356E-03  2.173965995314E-03
  1.916433976273E-03  1.633862891461E-03  1.344771144471E-03  1.065101731127E-03
  8.076091791573E-04  5.815586609637E-04  3.927003949876E-04  2.434753741714E-04
  1.334034948127E-04  5.960251645770E-05  1.738606409514E-05  8.910666046628E-07
  3.689461672588E-06  1.934541327274E-05  4.188729403163E-05  6.617279503681E-05
  8.813518279342E-05  1.049083322203E-04  1.148371312957E-04  1.173876238412E-04
  1.129773603060E-04  1.027505093435E-04  8.832414143890E-05  7.153169482595E-05
  5.418711472648E-05  3.788883003126E-05  2.387705409727E-05  1.295143547391E-05
  5.449468120833E-06  1.279930701008E-06  5.355570362980E-10  9.253900718549E-07
  3.246103106188E-06  6.150507342173E-06  8.924905111785E-06  1.102917131560E-05
  1.213848689952E-05  1.215034350414E-05  1.116012759571E-05  9.412472500544E-06
  7.238186536910E-06  4.987631593041E-06  2.970866870946E-06  1.412847707578E-06
  4.288507717360E-07  2.161217725840E-08  0.000000000000E+00  0.000000000000E+00
  0.000000000000E+00  0.000000000000E+00  0.000000000000E+00  0.000000000000E+00
  0.000000000000E+00  0.000000000000E+00  0.000000000000E+00  0.000000000000E+00
  0.000000000000E+00  0.000000000000E+00  0.000000000000E+00  0.000000000000E+00
  0.000000000000E+00  0.000000000000E+00  0.000000000000E+00  0.000000000000E+00
  0.000000000000E+00  0.000000000000E+00  0.000000000000E+00  0.000000000000E+00
  0.000000000000E+00  0.000000000000E+00  0.000000000000E+00  0.000000000000E+00
  0.000000000000E+00  0.000000000000E+00  0.000000000000E+00  0.000000000000E+00
  0.000000000000E+00  0.000000000000E+00  0.000000000000E+00  0.000000000000E+00
  0.000000000000E+00  0.000000000000E+00  0.000000000000E+00  0.000000000000E+00
  0.000000000000E+00  0.000000000000E+00  0.000000000000E+00  0.000000000000E+00
  0.000000000000E+00  0.000000000000E+00  0.000000000000E+00  0.000000000000E+00
  0.000000000000E+00  0.000000000000E+00  0.000000000000E+00  0.000000000000E+00
  0.000000000000E+00  0.000000000000E+00  0.000000000000E+00  0.000000000000E+00
  0.000000000000E+00  0.000000000000E+00  0.000000000000E+00  0.000000000000E+00
  0.000000000000E+00  0.000000000000E+00  0.000000000000E+00
</data>
</radfunc>
</pseudocore-charge>
<semilocal-potentials set="scalar_relativistic">
<slps n="4" l="s" rc="1.66856993556" eref="-0.328859470032">
<radfunc>
<data npts="291">
  7.181557689624E+01  7.175516989474E+01  7.156928401365E+01  7.126327357906E+01
  7.084126853687E+01  7.029240481895E+01  6.960262551942E+01  6.882587021098E+01
  6.796875767790E+01  6.699032675916E+01  6.591378646429E+01  6.477411936255E+01
  6.343733781671E+01  6.208644757790E+01  6.078086707990E+01  5.932868438369E+01
  5.772120939365E+01  5.625781216760E+01  5.467855431449E+01  5.298168430863E+01
  5.116696846373E+01  4.963130015037E+01  4.802280671988E+01  4.634400367752E+01
  4.459829317259E+01  4.278998032956E+01  4.092426706450E+01  3.949093215045E+01
  3.803156804681E+01  3.654927453044E+01  3.504736573815E+01  3.352934263165E+01
  3.199886172408E+01  3.045970063362E+01  2.891572114330E+01  2.737083053877E+01
  2.582894206239E+01  2.429393535858E+01  2.327630504739E+01  2.226453030337E+01
  2.125968747950E+01  2.026282235169E+01  1.927494607875E+01  1.829703150028E+01
  1.733000980171E+01  1.637476757064E+01  1.543214426315E+01  1.450293009292E+01
  1.358786435108E+01  1.268763415860E+01  1.180287364841E+01  1.093416356917E+01
  1.008203129830E+01  9.246951247621E+00  8.429345641252E+00  7.629585642504E+00
  6.847992803510E+00  6.084840809422E+00  5.340357487323E+00  4.614727048830E+00
  3.908092534780E+00  3.220558430147E+00  2.552193417518E+00  1.903033237983E+00
  1.273083629042E+00  6.623233100508E-01  7.070698664075E-02 -2.179421596254E-01
 -5.018316535942E-01 -7.809725827253E-01 -1.055376981376E+00 -1.325057742190E+00
 -1.590028529123E+00 -1.850303692343E+00 -2.105898185234E+00 -2.356827483777E+00
 -2.603107508548E+00 -2.844754549645E+00 -3.081785194838E+00 -3.314216261190E+00
 -3.542064730849E+00 -3.765347690557E+00 -3.984082276540E+00 -4.198285623934E+00
 -4.407974822076E+00 -4.613166875776E+00 -4.813878673185E+00 -5.010126960791E+00
 -5.201928326119E+00 -5.389299188709E+00 -5.572255799965E+00 -5.750814252457E+00
 -5.924990499265E+00 -6.094800383864E+00 -6.260259681080E+00 -6.421384149498E+00
 -6.578189595641E+00 -6.730691950131E+00 -6.878907355841E+00 -7.022852267921E+00
 -7.162543565328E+00 -7.297998673304E+00 -7.429235695949E+00 -7.556273557797E+00
 -7.679132153037E+00 -7.797832500740E+00 -7.912396904212E+00 -8.022849112368E+00
 -8.129214480867E+00 -8.231520130606E+00 -8.329795101099E+00 -8.424070496317E+00
 -8.514379620619E+00 -8.600758102551E+00 -8.683244004517E+00 -8.761877916569E+00
 -8.836703032852E+00 -8.907765209475E+00 -8.975113002894E+00 -9.038797687983E+00
 -9.098873255155E+00 -9.155396385775E+00 -9.208426405020E+00 -9.258025210984E+00
 -9.304257178352E+00 -9.347189034384E+00 -9.386889704158E+00 -9.423430121196E+00
 -9.456882998687E+00 -9.487322555618E+00 -9.514824191304E+00 -9.539464101164E+00
 -9.561318826295E+00 -9.580464729494E+00 -9.596977391239E+00 -9.610930920848E+00
 -9.622397181010E+00 -9.631444928304E+00 -9.638138878666E+00 -9.642538715157E+00
 -9.644698066019E+00 -9.644663493713E+00 -9.642473549884E+00 -9.638157965840E+00
 -9.631737061344E+00 -9.623221463813E+00 -9.612612232297E+00 -9.599901472543E+00
 -9.585073508322E+00 -9.568106638404E+00 -9.548975458859E+00 -9.527653670142E+00