<?xml version="1.0" encoding="UTF-8" ?>
<psml version="1.1" energy_unit="hartree" length_unit="bohr"
 uuid="4bdd6610-be63-11e7-7f06-388ca7d9bed6"
 xmlns="http://esl.cecam.org/PSML/ns/1.1">
<provenance creator="ONCVPSP-3.3.0+psml-3.3.0-73 (scalar-relativistic)"
 date="2017-10-31">
<annotation action="semilocal-pseudopotential-generation"
 action-cont="projectors-generation" />
<input-file name="oncvpsp-input">
<![CDATA[# atsym z nc nv iexc psfile
Ga 31 3 5 4 upf
# n l f
1 0 2.0
2 0 2.0
2 1 6.0
3 0 2.0
3 1 6.0
3 2 10.0
4 0 2.0
4 1 1.0
# lmax
2
# l rc ep ncon nbas qcut
0 1.2 0.0 4 7 9.4
1 1.3 0.0 4 7 10.6
2 1.5 0.0 4 7 10.6
# lloc lpopt rc5 dvloc0
4 5 1.2 0.0
# l nproj debl
0 2 1.0
1 2 1.0
2 2 3.0
# icmod fcfact rcfact
3 3.0 1.5
# epsh1 epsh2 depsh
-12.0 12.0 0.02
# rlmax drl
6.0 0.01
 0
]]>
</input-file>
</provenance>
<pseudo-atom-spec atomic-label="Ga" atomic-number="31" z-pseudo="21"
 flavor="Hamann&apos;s oncvpsp" relativity="scalar" spin-dft="no"
 core-corrections="yes">
<annotation pseudo-energy="-245.091442267" />
<exchange-correlation>
<annotation oncvpsp-xc-code="4" oncvpsp-xc-type="GGA -- Perdew-Burke-Ernzerhof" />
<libxc-info number-of-functionals="2">
<functional name="Perdew, Burke &amp; Ernzerhof (GGA)" type="exchange" id="101" />
<functional name="Perdew, Burke &amp; Ernzerhof (GGA)" type="correlation"
 id="130" />
</libxc-info>
</exchange-correlation>
<valence-configuration total-valence-charge="21">
<shell n="3" l="s" occupation="2" />
<shell n="3" l="p" occupation="6" />
<shell n="3" l="d" occupation="10" />
<shell n="4" l="s" occupation="2" />
<shell n="4" l="p" occupation="1" />
</valence-configuration>
</pseudo-atom-spec>
<grid npts="458">
<annotation type="sampled from oncvpsp log grid"
 recipe="r(i:1..N) = r1*exp(a*(i-1)) + r=0; resampled"
 recipe-cont="r1: scale; a: step" scale="0.161290322581E-04"
 step="0.119285708653E-01" delta="0.500000000000E-02" rmax="44.3593682749" />
<grid-data>
  0.000000000000E+00  5.005354308404E-03  1.011777605404E-02  1.517827746610E-02
  2.020946365338E-02  2.535038301076E-02  3.068122710716E-02  3.582773785855E-02
  4.085121947787E-02  4.602673310278E-02  5.124302544502E-02  5.637400155005E-02
  6.201874349076E-02  6.741965885400E-02  7.242185184910E-02  7.779518191586E-02
  8.356718552202E-02  8.870300612650E-02  9.415446082966E-02  9.994094767748E-02
  1.060830568691E-01  1.112674348058E-01  1.167051781279E-01  1.224086690381E-01
  1.283908948690E-01  1.346654776560E-01  1.412467051564E-01  1.463928491930E-01
  1.517264864416E-01  1.572544479790E-01  1.629838137635E-01  1.689219217026E-01
  1.750763770511E-01  1.814550621518E-01  1.880661465305E-01  1.949180973592E-01
  2.020196903006E-01  2.093800207477E-01  2.144352919686E-01  2.196126176579E-01
  2.249149446987E-01  2.303452911235E-01  2.359067478323E-01  2.416024803520E-01
  2.474357306376E-01  2.534098189181E-01  2.595281455861E-01  2.657941931331E-01
  2.722115281321E-01  2.787838032674E-01  2.855147594134E-01  2.924082277647E-01
  2.994681320159E-01  3.066984905953E-01  3.141034189522E-01  3.216871318994E-01
  3.294539460120E-01  3.374082820845E-01  3.455546676471E-01  3.538977395428E-01
  3.624422465663E-01  3.711930521674E-01  3.801551372189E-01  3.893336028520E-01
  3.987336733592E-01  4.083606991688E-01  4.182201598895E-01  4.232388018082E-01
  4.283176674299E-01  4.334574794391E-01  4.386589691923E-01  4.439228768226E-01
  4.492499513445E-01  4.546409507606E-01  4.600966421698E-01  4.656178018758E-01
  4.712052154983E-01  4.768596780843E-01  4.825819942213E-01  4.883729781520E-01
  4.942334538898E-01  5.001642553365E-01  5.061662264005E-01  5.122402211173E-01
  5.183871037707E-01  5.246077490160E-01  5.309030420042E-01  5.372738785082E-01
  5.437211650503E-01  5.502458190309E-01  5.568487688593E-01  5.635309540856E-01
  5.702933255346E-01  5.771368454410E-01  5.840624875863E-01  5.910712374374E-01
  5.981640922866E-01  6.053420613940E-01  6.126061661308E-01  6.199574401243E-01
  6.273969294058E-01  6.349256925587E-01  6.425448008694E-01  6.502553384798E-01
  6.580584025416E-01  6.659551033721E-01  6.739465646126E-01  6.820339233879E-01
  6.902183304686E-01  6.985009504342E-01  7.068829618394E-01  7.153655573815E-01
  7.239499440701E-01  7.326373433989E-01  7.414289915197E-01  7.503261394179E-01
  7.593300530909E-01  7.684420137280E-01  7.776633178928E-01  7.869952777075E-01
  7.964392210400E-01  8.059964916924E-01  8.156684495928E-01  8.254564709879E-01
  8.353619486397E-01  8.453862920234E-01  8.555309275277E-01  8.657972986580E-01
  8.761868662419E-01  8.867011086368E-01  8.973415219405E-01  9.081096202037E-01
  9.190069356462E-01  9.300350188739E-01  9.411954391004E-01  9.524897843696E-01
  9.639196617821E-01  9.754866977235E-01  9.871925380961E-01  9.990388485533E-01
  1.011027314736E+00  1.023159642513E+00  1.035437558223E+00  1.047862808922E+00
  1.060437162629E+00  1.073162408580E+00  1.086040357483E+00  1.099072841773E+00
  1.112261715874E+00  1.125608856465E+00  1.139116162742E+00  1.152785556695E+00
  1.166618983376E+00  1.180618411176E+00  1.194785832110E+00  1.209123262095E+00
  1.223632741241E+00  1.238316334136E+00  1.253176130145E+00  1.268214243707E+00
  1.283432814631E+00  1.298834008407E+00  1.314420016508E+00  1.330193056706E+00
  1.346155373386E+00  1.362309237867E+00  1.378656948721E+00  1.395200832106E+00
  1.411943242091E+00  1.428886560996E+00  1.446033199728E+00  1.463385598125E+00
  1.480946225303E+00  1.498717580006E+00  1.516702190966E+00  1.534902617258E+00
  1.553321448665E+00  1.571961306049E+00  1.590824841722E+00  1.609914739822E+00
  1.629233716700E+00  1.648784521301E+00  1.668569935556E+00  1.688592774783E+00
  1.708855888080E+00  1.729362158737E+00  1.750114504642E+00  1.771115878698E+00
  1.792369269242E+00  1.813877700473E+00  1.835644232879E+00  1.857671963673E+00
  1.879964027237E+00  1.902523595564E+00  1.925353878711E+00  1.948458125255E+00
  1.971839622759E+00  1.995501698232E+00  2.019447718610E+00  2.043681091234E+00
  2.068205264329E+00  2.093023727500E+00  2.118140012230E+00  2.143557692377E+00
  2.169280384686E+00  2.195311749302E+00  2.221655490294E+00  2.248315356177E+00
  2.275295140451E+00  2.302598682137E+00  2.330229866322E+00  2.358192624718E+00
  2.386490936215E+00  2.415128827449E+00  2.444110373379E+00  2.473439697859E+00
  2.503120974234E+00  2.533158425924E+00  2.563556327036E+00  2.594319002960E+00
  2.625450830996E+00  2.656956240967E+00  2.688839715859E+00  2.721105792449E+00
  2.753759061959E+00  2.786804170702E+00  2.820245820751E+00  2.854088770600E+00
  2.888337835847E+00  2.922997889877E+00  2.958073864556E+00  2.993570750930E+00
  3.029493599941E+00  3.065847523141E+00  3.102637693418E+00  3.139869345739E+00
  3.177547777888E+00  3.215678351223E+00  3.254266491438E+00  3.293317689335E+00
  3.332837501607E+00  3.372831551626E+00  3.413305530246E+00  3.454265196609E+00
  3.495716378968E+00  3.537664975516E+00  3.580116955222E+00  3.623078358684E+00
  3.666555298989E+00  3.710553962577E+00  3.755080610127E+00  3.800141577449E+00
  3.845743276378E+00  3.891892195695E+00  3.938594902043E+00  3.985858040868E+00
  4.033688337358E+00  4.082092597406E+00  4.131077708575E+00  4.180650641078E+00
  4.230818448771E+00  4.281588270156E+00  4.332967329398E+00  4.384962937351E+00
  4.437582492599E+00  4.490833482510E+00  4.544723484301E+00  4.599260166112E+00
  4.654451288106E+00  4.710304703563E+00  4.766828360006E+00  4.824030300326E+00
  4.881918663930E+00  4.940501687897E+00  4.999787708151E+00  5.059785160649E+00
  5.120502582577E+00  5.181948613568E+00  5.244131996931E+00  5.307061580894E+00
  5.370746319865E+00  5.435195275703E+00  5.500417619012E+00  5.566422630440E+00
  5.633219702005E+00  5.700818338429E+00  5.769228158490E+00  5.838458896392E+00
  5.908520403149E+00  5.979422647987E+00  6.051175719762E+00  6.123789828400E+00
  6.197275306340E+00  6.271642610016E+00  6.346902321337E+00  6.423065149193E+00
  6.500141930983E+00  6.578143634155E+00  6.657081357765E+00  6.736966334058E+00
  6.817809930066E+00  6.899623649227E+00  6.982419133018E+00  7.066208162614E+00
  7.151002660566E+00  7.236814692492E+00  7.323656468802E+00  7.411540346428E+00
  7.500478830585E+00  7.590484576552E+00  7.681570391471E+00  7.773749236168E+00
  7.867034227002E+00  7.961438637726E+00  8.056975901379E+00  8.153659612196E+00
  8.251503527542E+00  8.350521569872E+00  8.450727828711E+00  8.552136562655E+00
  8.654762201407E+00  8.758619347824E+00  8.863722779998E+00  8.970087453358E+00
  9.077728502798E+00  9.186661244832E+00  9.296901179770E+00  9.408463993927E+00
  9.521365561854E+00  9.635621948597E+00  9.751249411980E+00  9.868264404924E+00
  9.986683577783E+00  1.010652378072E+01  1.022780206608E+01  1.035053569088E+01
  1.047474211917E+01  1.060043902460E+01  1.072764429289E+01  1.085637602441E+01
  1.098665253670E+01  1.111849236714E+01  1.125191427555E+01  1.138693724685E+01
  1.152358049382E+01  1.166186345974E+01  1.180180582126E+01  1.194342749111E+01
  1.208674862101E+01  1.223178960446E+01  1.237857107971E+01  1.252711393267E+01
  1.267743929986E+01  1.282956857146E+01  1.298352339432E+01  1.313932567505E+01
  1.329699758315E+01  1.345656155415E+01  1.361804029280E+01  1.378145677631E+01
  1.394683425763E+01  1.411419626872E+01  1.428356662394E+01  1.445496942343E+01
  1.462842905651E+01  1.480397020519E+01  1.498161784765E+01  1.516139726182E+01
  1.534333402896E+01  1.552745403731E+01  1.571378348576E+01  1.590234888759E+01
  1.609317707424E+01  1.628629519913E+01  1.648173074152E+01  1.667951151042E+01
  1.687966564854E+01  1.708222163633E+01  1.728720829596E+01  1.749465479551E+01
  1.770459065306E+01  1.791704574090E+01  1.813205028979E+01  1.834963489327E+01
  1.856983051198E+01  1.879266847813E+01  1.901818049987E+01  1.924639866586E+01
  1.947735544985E+01  1.971108371525E+01  1.994761671984E+01  2.018698812047E+01
  2.042923197792E+01  2.067438276165E+01  2.092247535479E+01  2.117354505905E+01
  2.142762759976E+01  2.168475913096E+01  2.194497624053E+01  2.220831595542E+01
  2.247481574688E+01  2.274451353584E+01  2.301744769827E+01  2.329365707065E+01
  2.357318095550E+01  2.385605912697E+01  2.414233183649E+01  2.443203981853E+01
  2.472522429635E+01  2.502192698791E+01  2.532219011176E+01  2.562605639310E+01
  2.593356906982E+01  2.624477189866E+01  2.655970916144E+01  2.687842567138E+01
  2.720096677944E+01  2.752737838079E+01  2.785770692136E+01  2.819199940441E+01
  2.853030339727E+01  2.887266703803E+01  2.921913904249E+01  2.956976871100E+01
  2.992460593553E+01  3.028370120676E+01  3.064710562124E+01  3.101487088870E+01
  3.138704933936E+01  3.176369393143E+01  3.214485825861E+01  3.253059655771E+01
  3.292096371640E+01  3.331601528100E+01  3.371580746437E+01  3.412039715395E+01
  3.452984191979E+01  3.494420002283E+01  3.536353042311E+01  3.578789278818E+01
  3.621734750164E+01  3.665195567166E+01  3.709177913972E+01  3.753688048940E+01
  3.798732305527E+01  3.844317093193E+01  3.890448898312E+01  3.937134285091E+01
  3.984379896512E+01  4.032192455271E+01  4.080578764734E+01  4.129545709911E+01
  4.179100258430E+01  4.229249461531E+01  4.280000455069E+01  4.331360460530E+01
  4.383336786056E+01  4.435936827489E+01
</grid-data>
</grid>
<valence-charge total-charge="21" is-unscreening-charge="yes"
 rescaled-to-z-pseudo="no">
<radfunc>
<data npts="458">
  2.942235405563E+01  2.943566337474E+01  2.947672486304E+01  2.954467251326E+01
  2.963909949499E+01  2.976318376319E+01  2.992120014886E+01  3.010196659587E+01
  3.030499374266E+01  3.054145265006E+01  3.080758909365E+01  3.109638533672E+01
  3.144474558512E+01  3.180778658715E+01  3.216964687123E+01  3.258544821942E+01
  3.306290835194E+01  3.351414419153E+01  3.401983747925E+01  3.458615031423E+01
  3.521982438333E+01  3.578017571785E+01  3.639236062785E+01  3.706066032890E+01
  3.778959128542E+01  3.858388777353E+01  3.944847416424E+01  4.014608976612E+01
  4.088827337467E+01  4.167721502426E+01  4.251509515119E+01  4.340405798770E+01
  4.434617932532E+01  4.534342779751E+01  4.639761874526E+01  4.751035964757E+01
  4.868298602477E+01  4.991648666499E+01  5.077293449240E+01  5.165673280628E+01
  5.256779939226E+01  5.350591639315E+01  5.447071299331E+01  5.546164670275E+01
  5.647798321162E+01  5.751877480369E+01  5.858283733957E+01  5.966872584791E+01
  6.077470879688E+01  6.189874115855E+01  6.303843642740E+01  6.419103781100E+01
  6.535338887682E+01  6.652190401554E+01  6.769253916732E+01  6.886076335467E+01
  7.002153167338E+01  7.116926051088E+01  7.229780588834E+01  7.340044595763E+01
  7.446986882378E+01  7.549816700439E+01  7.647683997546E+01  7.739680638134E+01
  7.824842759789E+01  7.902154442327E+01  7.970552871874E+01  8.001066311252E+01
  8.028935182002E+01  8.054016793459E+01  8.076167147371E+01  8.095241321988E+01
  8.111093890730E+01  8.123579376169E+01  8.132552739861E+01  8.137869908355E+01
  8.139388335447E+01  8.136967600499E+01  8.130470042294E+01  8.119761427616E+01
  8.104711653325E+01  8.085195480325E+01  8.061093297382E+01  8.032291912286E+01
  7.998685367372E+01  7.960175775889E+01  7.916674175157E+01  7.868101391941E+01
  7.814388914835E+01  7.755479767935E+01  7.691329379441E+01  7.621906438315E+01
  7.547193731490E+01  7.467188953669E+01  7.381905481171E+01  7.291373100892E+01
  7.195638685000E+01  7.094766801693E+01  6.988840252068E+01  6.877960523044E+01
  6.762248146202E+01  6.641842952545E+01  6.516904213367E+01  6.387610657836E+01
  6.254160358430E+01  6.116770476100E+01  5.975676857907E+01  5.831133481033E+01
  5.683411738291E+01  5.532799561789E+01  5.379600383027E+01  5.224131929605E+01
  5.066724860668E+01  4.907721245440E+01  4.747472891435E+01  4.586339531340E+01
  4.424686880004E+01  4.262884575422E+01  4.101304020043E+01  3.940316141102E+01
  3.780289090919E+01  3.621585910135E+01  3.464562178709E+01  3.309563680968E+01
  3.156924112194E+01  3.006962854961E+01  2.859982853687E+01  2.716268615706E+01
  2.576084366329E+01  2.439672384099E+01  2.307251540509E+01  2.179016066027E+01
  2.055134561229E+01  1.935749268356E+01  1.820975614639E+01  1.710902034368E+01
  1.605590072073E+01  1.505074764331E+01  1.409365292833E+01  1.318445896478E+01
  1.232277025628E+01  1.150796717285E+01  1.073922166078E+01  1.001551462618E+01
  9.335654681139E+00  8.698297922632E+00  8.101968403787E+00  7.545078954895E+00
  7.025952018480E+00  6.542840177774E+00  6.093946081008E+00  5.677441493861E+00
  5.291485248233E+00  4.934239895687E+00  4.603886916942E+00  4.298640383055E+00
  4.016759193964E+00  3.756558335268E+00  3.516418641382E+00  3.294793321700E+00
  3.090213139151E+00  2.901290082560E+00  2.726719808720E+00  2.565282580127E+00
  2.415841937139E+00  2.277342229174E+00  2.148808713275E+00  2.029346902355E+00
  1.918141328690E+00  1.814453734480E+00  1.717620726052E+00  1.627050919739E+00
  1.542221600093E+00  1.462674907960E+00  1.388013576806E+00  1.317894081847E+00
  1.252011094027E+00  1.190079104010E+00  1.131828959604E+00  1.077009725665E+00
  1.025386568582E+00  9.767401407307E-01  9.308657586859E-01  8.875726219220E-01
  8.466830535728E-01  8.080317641806E-01  7.714651395499E-01  7.368405535086E-01
  7.040257061568E-01  6.728979879841E-01  6.433438700618E-01  6.152583203640E-01
  5.885442461421E-01  5.631119621628E-01  5.388786845206E-01  5.157680496482E-01
  4.937096580848E-01  4.726386424741E-01  4.524952592289E-01  4.332245032379E-01
  4.147757449484E-01  3.971023891232E-01  3.801615545370E-01  3.639137738540E-01
  3.483227129098E-01  3.333549086030E-01  3.189795245990E-01  3.051681240400E-01
  2.918944584583E-01  2.791342720956E-01  2.668651208389E-01  2.550662049976E-01
  2.437182151603E-01  2.328031903900E-01  2.223043880341E-01  2.122061644517E-01
  2.024938659788E-01  1.931537294822E-01  1.841727918737E-01  1.755388079857E-01
  1.672401762315E-01  1.592658715046E-01  1.516053847919E-01  1.442486690068E-01
  1.371860905683E-01  1.304083862825E-01  1.239066251013E-01  1.176721743619E-01
  1.116966701301E-01  1.059719912940E-01  1.004902370746E-01  9.524370764387E-02
  9.022488755205E-02  8.542643169674E-02  8.084115357435E-02  7.646201557557E-02
  7.228212110251E-02  6.829470830008E-02  6.449314520945E-02  6.087092616474E-02
  5.742166926760E-02  5.413911478695E-02  5.101712434262E-02  4.804968074313E-02
  4.523088835850E-02  4.255497391881E-02  4.001628763915E-02  3.760930458046E-02
  3.532862616460E-02  3.316898177012E-02  3.112523034318E-02  2.919236196558E-02
  2.736549932896E-02  2.563989907106E-02  2.401095293655E-02  2.247418873092E-02
  2.102527104187E-02  1.966000170811E-02  1.837432002057E-02  1.716430264646E-02
  1.602616326778E-02  1.495625193801E-02  1.395105415360E-02  1.300718964857E-02
  1.212141091975E-02  1.129060149387E-02  1.051177394957E-02  9.782067709353E-03
  9.098746618055E-03  8.459196325611E-03  7.860921492676E-03  7.301542838329E-03
  6.778794049345E-03  6.290518570613E-03  5.834666296072E-03  5.409290179213E-03
  5.012542781629E-03  4.642672777415E-03  4.298021430403E-03  3.977019060297E-03
  3.678181512779E-03  3.400106647591E-03  3.141470857503E-03  2.901025629944E-03
  2.677594161947E-03  2.470068037938E-03  2.277403978755E-03  2.098620669259E-03
  1.932795670792E-03  1.779062423789E-03  1.636607344857E-03  1.504667021781E-03
  1.382525509052E-03  1.269511725736E-03  1.164996956807E-03  1.068392458400E-03
  9.791471668408E-04  8.967455107912E-04  8.207053253628E-04  7.505758666313E-04
  6.859359246183E-04  6.263920324869E-04  5.715767694226E-04  5.211471544448E-04
  4.747831282013E-04  4.321861196465E-04  3.930776943848E-04  3.571982813713E-04
  3.243059746048E-04  2.941754064088E-04  2.665966888931E-04  2.413744201934E-04
  2.183267521214E-04  1.972845159051E-04  1.780904027657E-04  1.605981961551E-04
  1.446720525763E-04  1.301858279981E-04  1.170224470558E-04  1.050733119821E-04
  9.423775039698E-05  8.442249218224E-05  7.554119499581E-05  6.751397225461E-05
  6.026697610367E-05  5.373199817076E-05  4.784608880439E-05  4.255120455697E-05
  3.779387689722E-05  3.352490037323E-05  2.969903956135E-05  2.627475358094E-05
  2.321393709219E-05  2.048167678602E-05  1.804602245854E-05  1.587777183859E-05
  1.395026840459E-05  1.223921148791E-05  1.072247801343E-05  9.379955275350E-06
  8.193384187327E-06  7.146212482026E-06  6.223457366121E-06  5.411577163543E-06
  4.698351502939E-06  4.072769625274E-06  3.524926404939E-06  3.045925692998E-06
  2.627790604779E-06  2.263380386343E-06  1.946313505629E-06  1.670896624764E-06
  1.432059120221E-06  1.225292827491E-06  1.046596696873E-06  8.924260569112E-07
  7.596461921437E-07  6.454899520861E-07  5.475191188805E-07  4.635892717658E-07
  3.918178974476E-07  3.305555065608E-07  2.783595276602E-07  2.339707615188E-07
  1.962921898862E-07  1.643699442164E-07  1.373762511539E-07  1.145941827086E-07
  9.540405000338E-08  7.927129019262E-08  6.573570656970E-08  5.440193198142E-08
  4.493099539305E-08  3.703288078321E-08  3.045997646087E-08  2.500132137203E-08
  2.047756298695E-08  1.673654892295E-08  1.364948155948E-08  1.110757154329E-08
  9.019132267713E-09  7.307063150039E-09  5.906674837540E-09  4.763814359899E-09
  3.833252731030E-09  3.077301604610E-09  2.464629324890E-09  1.969250108248E-09
  1.569663162124E-09  1.248121318374E-09  9.900112480899E-10  7.833295562421E-10
  6.182410469583E-10  4.867072239264E-10  3.821746640920E-10  2.993142946680E-10
  2.338038305233E-10  1.821467073759E-10  1.415217908715E-10  1.096589665765E-10
  8.473643401822E-11  6.529615106169E-11  5.017441394758E-11  3.844502313097E-11
  2.937288459737E-11  2.237623867872E-11  1.699600079864E-11  1.287094753530E-11
  9.717692678234E-12  7.314576698401E-12  5.488743772517E-12  4.105807184940E-12
  3.061610059597E-12  2.275676993522E-12  1.686025917087E-12  1.245070683532E-12
  9.163954661743E-13  6.722237119587E-13  4.914386159500E-13  3.580400801921E-13
  2.599459523967E-13  1.880638937145E-13  1.355752481217E-13  9.738441450225E-14
  6.969695002482E-14  4.969747494524E-14  3.530464389856E-14  2.498542815226E-14
  1.761487023899E-14  1.237057222337E-14  8.653614949803E-15  6.029513597324E-15
  4.184303409924E-15  2.892006216030E-15  1.990623685758E-15  1.364493490010E-15
  9.313744532935E-16  6.330319847170E-16  4.284036029843E-16  2.886583140299E-16
  1.936402331182E-16  1.293196333576E-16  8.597399861429E-17  5.689573211021E-17
  3.747812710224E-17  2.457180380246E-17  1.603362821909E-17  1.041205846970E-17
  6.728608244704E-18  4.326835835046E-18  2.768489936619E-18  0.000000000000E+00
  0.000000000000E+00  0.000000000000E+00  0.000000000000E+00  0.000000000000E+00
  0.000000000000E+00  0.000000000000E+00
</data>
</radfunc>
</valence-charge>
<pseudocore-charge matching-radius="0.337408282084"
 number-of-continuous-derivatives="4">
<annotation model-charge-form="Teter function with specified parameters" />
<radfunc>
<data npts="291">
  2.321304947969E+02  2.320587716094E+02  2.318375632370E+02  2.314717457212E+02
  2.309638510358E+02  2.302972911186E+02  2.294498529233E+02  2.284823254826E+02
  2.273980866380E+02  2.261385503578E+02  2.247250904203E+02  2.231962496161E+02
  2.213589387917E+02  2.194521393260E+02  2.175595701128E+02  2.153947337178E+02
  2.129218014358E+02  2.105973240877E+02  2.080068159925E+02  2.051238494187E+02
  2.019204462266E+02  1.991073517791E+02  1.960549578398E+02  1.927475219437E+02
  1.891692363691E+02  1.853044728340E+02  1.811380848850E+02  1.778067083388E+02
  1.742920206555E+02  1.705889690260E+02  1.666931616131E+02  1.626010173564E+02
  1.583099308671E+02  1.538184521213E+02  1.491264801390E+02  1.442354691924E+02
  1.391486452979E+02  1.338712298082E+02  1.302506459693E+02  1.265514126423E+02
  1.227768418197E+02  1.189307845755E+02  1.150176564867E+02  1.110424605915E+02
  1.070108072149E+02  1.029289299269E+02  9.880369683908E+01  9.464261639456E+01
  9.045383675728E+01  8.624613787661E+01  8.202891528375E+01  7.781215467874E+01
  7.360639639316E+01  6.942268886780E+01  6.527253037383E+01  6.116779833301E+01
  5.712066576362E+01  5.314350459756E+01  4.924877588404E+01  4.544890721854E+01
  4.175615811325E+01  3.818247445437E+01  3.473933366864E+01  3.143758273771E+01
  2.828727174327E+01  2.529748618056E+01  2.247618182350E+01  2.113084819823E+01
  1.983002643323E+01  1.857432466117E+01  1.736425304409E+01  1.620022018098E+01
  1.508252989971E+01  1.401137847458E+01  1.298685231033E+01  1.200892613198E+01
  1.107746171826E+01  1.019220721388E+01  9.352797052989E+00  8.558752522936E+00
  7.809482992776E+00  7.104287826735E+00  6.442358997141E+00  5.822784405505E+00
  5.244551913810E+00  4.706554081086E+00  4.207593592667E+00  3.746389361649E+00
  3.321583273719E+00  2.931747537963E+00  2.575392597646E+00  2.250975546230E+00
  1.956908985404E+00  1.691570253671E+00  1.453310946238E+00  1.240466639826E+00
  1.051366729681E+00  8.843442807025E-01  7.377457904164E-01  6.099407586837E-01
  4.993309576595E-01  4.043592958222E-01  3.235181719403E-01  2.553572187646E-01
  1.984903420775E-01  1.516019685251E-01  1.134524253835E-01  8.288238699789E-02
  5.881633596567E-02  4.026500203339E-02  2.632675791915E-02  1.618796856468E-02
  9.122308333679E-03  4.489079016095E-03  1.730579747148E-03  3.685976456540E-04
  1.046396689623E-07  2.922610920284E-04  9.768399858523E-04  1.844196127934E-03
  2.736912667017E-03  3.543261857716E-03  4.190618163302E-03  4.638959314039E-03
  4.874584767621E-03  4.904171225654E-03  4.749271649520E-03  4.441347931780E-03
  4.017408490824E-03  3.516301167024E-03  2.975689617209E-03  2.429718726021E-03
  1.907352228919E-03  1.431344645154E-03  1.017790603644E-03  6.761785029253E-04
  4.098628655827E-04  2.168612684662E-04  9.087770899294E-05  2.245484730892E-05
  1.626522060602E-07  1.174024202818E-05  4.512058223712E-05  8.928339842064E-05
  1.348992326850E-04  1.747459364163E-04  2.038969205790E-04  2.196970604172E-04
  2.215562537814E-04  2.106014110950E-04  1.892344985415E-04  1.606468447393E-04
  1.283382605560E-04  9.568395080417E-05  6.558336791543E-05  4.021398889966E-05
  2.090059537204E-05  8.098202559674E-06  1.475499583328E-06  7.658025714057E-08
  2.532672546219E-06  7.293001475467E-06  1.284494932903E-05  1.789801603466E-05
  2.151307099460E-05  2.316706940432E-05  2.275264191500E-05  2.052057246035E-05
  1.698007684808E-05  1.277615341613E-05  8.564626890431E-06  4.903806450190E-06
  2.177325073431E-06  5.564974541594E-07  3.472676462323E-09  0.000000000000E+00
  0.000000000000E+00  0.000000000000E+00  0.000000000000E+00  0.000000000000E+00
  0.000000000000E+00  0.000000000000E+00  0.000000000000E+00  0.000000000000E+00
  0.000000000000E+00  0.000000000000E+00  0.000000000000E+00  0.000000000000E+00
  0.000000000000E+00  0.000000000000E+00  0.000000000000E+00  0.000000000000E+00
  0.000000000000E+00  0.000000000000E+00  0.000000000000E+00  0.000000000000E+00
  0.000000000000E+00  0.000000000000E+00  0.000000000000E+00  0.000000000000E+00
  0.000000000000E+00  0.000000000000E+00  0.000000000000E+00  0.000000000000E+00
  0.000000000000E+00  0.000000000000E+00  0.000000000000E+00  0.000000000000E+00
  0.000000000000E+00  0.000000000000E+00  0.000000000000E+00  0.000000000000E+00
  0.000000000000E+00  0.000000000000E+00  0.000000000000E+00  0.000000000000E+00
  0.000000000000E+00  0.000000000000E+00  0.000000000000E+00  0.000000000000E+00
  0.000000000000E+00  0.000000000000E+00  0.000000000000E+00  0.000000000000E+00
  0.000000000000E+00  0.000000000000E+00  0.000000000000E+00  0.000000000000E+00
  0.000000000000E+00  0.000000000000E+00  0.000000000000E+00  0.000000000000E+00
  0.000000000000E+00  0.000000000000E+00  0.000000000000E+00  0.000000000000E+00
  0.000000000000E+00  0.000000000000E+00  0.000000000000E+00  0.000000000000E+00
  0.000000000000E+00  0.000000000000E+00  0.000000000000E+00  0.000000000000E+00
  0.000000000000E+00  0.000000000000E+00  0.000000000000E+00  0.000000000000E+00
  0.000000000000E+00  0.000000000000E+00  0.000000000000E+00  0.000000000000E+00
  0.000000000000E+00  0.000000000000E+00  0.000000000000E+00  0.000000000000E+00
  0.000000000000E+00  0.000000000000E+00  0.000000000000E+00  0.000000000000E+00
  0.000000000000E+00  0.000000000000E+00  0.000000000000E+00  0.000000000000E+00
  0.000000000000E+00  0.000000000000E+00  0.000000000000E+00  0.000000000000E+00
  0.000000000000E+00  0.000000000000E+00  0.000000000000E+00  0.000000000000E+00
  0.000000000000E+00  0.000000000000E+00  0.000000000000E+00  0.000000000000E+00
  0.000000000000E+00  0.000000000000E+00  0.000000000000E+00  0.000000000000E+00
  0.000000000000E+00  0.000000000000E+00  0.000000000000E+00  0.000000000000E+00
  0.000000000000E+00  0.000000000000E+00  0.000000000000E+00  0.000000000000E+00
  0.000000000000E+00  0.000000000000E+00  0.000000000000E+00
</data>
</radfunc>
</pseudocore-charge>
<semilocal-potentials set="scalar_relativistic">
<slps n="3" l="s" rc="1.20912326210" eref="-5.44352862559">
<radfunc>
<data npts="291">
 -3.595063321484E+01 -3.595056422920E+01 -3.595035194759E+01 -3.595000253696E+01
 -3.594952077517E+01 -3.594889431007E+01 -3.594810709504E+01 -3.594722055911E+01
 -3.594624196067E+01 -3.594512396169E+01 -3.594389209094E+01 -3.594258501344E+01
 -3.594104638661E+01 -3.593948335761E+01 -3.593796247902E+01 -3.593625554000E+01
 -3.593434208489E+01 -3.593257244739E+01 -3.593062562995E+01 -3.592848050631E+01
 -3.592610999812E+01 -3.592402772693E+01 -3.592175493340E+01 -3.591926136261E+01
 -3.591650816668E+01 -3.591344534478E+01 -3.591000853183E+01 -3.590713654869E+01
 -3.590396490024E+01 -3.590044160316E+01 -3.589650430049E+01 -3.589207837556E+01
 -3.588707477229E+01 -3.588138748297E+01 -3.587489066076E+01 -3.586743530928E+01
 -3.585884549775E+01 -3.584891404623E+01 -3.584142920985E+01 -3.583315865238E+01
 -3.582401119839E+01 -3.581388577297E+01 -3.580267046677E+01 -3.579024153544E+01
 -3.577646233515E+01 -3.576118219888E+01 -3.574423526201E+01 -3.572543925176E+01
 -3.570459426198E+01 -3.568148154505E+01 -3.565586236549E+01 -3.562747697500E+01
 -3.559604378737E+01 -3.556125885185E+01 -3.552279574287E+01 -3.548030599985E+01
 -3.543342025534E+01 -3.538175017559E+01 -3.532489129387E+01 -3.526242673345E+01
 -3.519393168770E+01 -3.511897835415E+01 -3.503714082855E+01 -3.494799929835E+01
 -3.485114279638E+01 -3.474616985402E+01 -3.463268667329E+01 -3.457263178026E+01
 -3.451030290392E+01 -3.444565080504E+01 -3.437862566775E+01 -3.430917689953E+01
 -3.423725295369E+01 -3.416280118404E+01 -3.408576773954E+01 -3.400609750466E+01
 -3.392373408900E+01 -3.383861986712E+01 -3.375069606837E+01 -3.365990291441E+01
 -3.356617980193E+01 -3.346946552742E+01 -3.336969855126E+01 -3.326681729840E+01
 -3.316076049380E+01 -3.305146753018E+01 -3.293887886563E+01 -3.282293644764E+01
 -3.270358415785E+01 -3.258076827024E+01 -3.245443791204E+01 -3.232454551445E+01
 -3.219104723724E+01 -3.205390334995E+01 -3.191307855130E+01 -3.176854220963E+01
 -3.162026850903E+01 -3.146823649021E+01 -3.131242998017E+01 -3.115283741114E+01
 -3.098945153584E+01 -3.082226905263E+01 -3.065129015960E+01 -3.047651806066E+01
 -3.029795844916E+01 -3.011561899466E+01 -2.992950885680E+01 -2.973963824721E+01
 -2.954601805543E+01 -2.934865955011E+01 -2.914757416116E+01 -2.894277334366E+01
 -2.873426852027E+01 -2.852207109579E+01 -2.830619253550E+01 -2.808664449842E+01
 -2.786343901701E+01 -2.763658871623E+01 -2.740610706740E+01 -2.717200867489E+01
 -2.693430959760E+01 -2.669302771034E+01 -2.644818311486E+01 -2.619979861405E+01
 -2.594790026729E+01 -2.569251804949E+01 -2.543368664040E+01 -2.517144637586E+01
 -2.490584439652E+01 -2.463693603395E+01 -2.436478647812E+01 -2.408947277288E+01
 -2.381108618882E+01 -2.352973502353E+01 -2.324554787867E+01 -2.295867746036E+01
 -2.266930494460E+01 -2.237764494166E+01 -2.208395108356E+01 -2.178852224631E+01
 -2.149170940456E+01 -2.119392310045E+01 -2.089564149186E+01 -2.059741892822E+01
 -2.029989498478E+01 -2.000380386921E+01 -1.970998409713E+01 -1.941938831667E+01