<?xml version="1.0" encoding="UTF-8" ?>
<psml version="1.1" energy_unit="hartree" length_unit="bohr"
 uuid="8a2f7c50-be6d-11e7-49c3-7562bfbff8cb"
 xmlns="http://esl.cecam.org/PSML/ns/1.1">
<provenance creator="ONCVPSP-3.3.0+psml-3.3.0-73 (scalar-relativistic)"
 date="2017-10-31">
<annotation action="semilocal-pseudopotential-generation"
 action-cont="projectors-generation" />
<input-file name="oncvpsp-input">
<![CDATA[# atsym z nc nv iexc psfile
Rn 86 12 3 4 upf
# n l f
1 0 2.0
2 0 2.0
2 1 6.0
3 0 2.0
3 1 6.0
3 2 10.0
4 0 2.0
4 1 6.0
4 2 10.0
5 0 2.0
5 1 6.0
4 3 14.0
5 2 10.0
6 0 2.0
6 1 6.0
# lmax
2
# l rc ep ncon nbas qcut
0 2.2 0.0 4 7 3.6
1 2.0 0.0 4 7 4.6
2 1.8 0.0 4 8 8.4
# lloc lpopt rc5 dvloc0
4 5 1.8 0.0
# l nproj debl
0 2 2.8
1 2 2.5
2 2 1.8
# icmod fcfact rcfact
3 6.0 1.34
# epsh1 epsh2 depsh
-12.0 12.0 0.02
# rlmax drl
6.0 0.01
 0
]]>
</input-file>
</provenance>
<pseudo-atom-spec atomic-label="Rn" atomic-number="86" z-pseudo="18"
 flavor="Hamann&apos;s oncvpsp" relativity="scalar" spin-dft="no"
 core-corrections="yes">
<annotation pseudo-energy="-109.964125925" />
<exchange-correlation>
<annotation oncvpsp-xc-code="4" oncvpsp-xc-type="GGA -- Perdew-Burke-Ernzerhof" />
<libxc-info number-of-functionals="2">
<functional name="Perdew, Burke &amp; Ernzerhof (GGA)" type="exchange" id="101" />
<functional name="Perdew, Burke &amp; Ernzerhof (GGA)" type="correlation"
 id="130" />
</libxc-info>
</exchange-correlation>
<valence-configuration total-valence-charge="18">
<shell n="5" l="d" occupation="10" />
<shell n="6" l="s" occupation="2" />
<shell n="6" l="p" occupation="6" />
</valence-configuration>
</pseudo-atom-spec>
<grid npts="457">
<annotation type="sampled from oncvpsp log grid"
 recipe="r(i:1..N) = r1*exp(a*(i-1)) + r=0; resampled"
 recipe-cont="r1: scale; a: step" scale="0.581395348837E-05"
 step="0.119285708653E-01" delta="0.500000000000E-02" rmax="44.0749834721" />
<grid-data>
  0.000000000000E+00  5.032944516527E-03  1.005291170046E-02  1.508097059243E-02
  2.032086102386E-02  2.549011784273E-02  3.085034629218E-02  3.602522532560E-02
  4.107639707330E-02  4.628043884812E-02  5.152548411822E-02  5.668474287617E-02
  6.236059941843E-02  6.779128537727E-02  7.282105115488E-02  7.822399976325E-02
  8.402781945494E-02  8.919194941589E-02  9.467345329450E-02  1.004918360615E-01
  1.066678014120E-01  1.118807563599E-01  1.173484732785E-01  1.230834026227E-01
  1.290986033132E-01  1.354077724720E-01  1.420252766125E-01  1.471997869097E-01
  1.525628239076E-01  1.581212563368E-01  1.638822031812E-01  1.698530427959E-01
  1.760414223571E-01  1.824552676560E-01  1.891027932499E-01  1.959925129832E-01
  2.031332508913E-01  2.105341525020E-01  2.156172890801E-01  2.208231529076E-01
  2.261547071114E-01  2.316149863599E-01  2.372070985906E-01  2.429342267789E-01
  2.487996307503E-01  2.548066490351E-01  2.609587007694E-01  2.672592876408E-01
  2.737119958816E-01  2.803204983102E-01  2.870885564214E-01  2.940200225276E-01
  3.011188419515E-01  3.083890552716E-01  3.158348006221E-01  3.234603160483E-01
  3.312699419190E-01  3.392681233967E-01  3.474594129680E-01  3.558484730347E-01
  3.644400785676E-01  3.732391198245E-01  3.822506051336E-01  3.914796637439E-01
  4.009315487454E-01  4.106116400583E-01  4.205254474958E-01  4.255717528658E-01
  4.306786139002E-01  4.358467572670E-01  4.410769183542E-01  4.463698413744E-01
  4.517262794709E-01  4.571469948246E-01  4.626327587625E-01  4.681843518676E-01
  4.738025640900E-01  4.794881948591E-01  4.852420531974E-01  4.910649578358E-01
  4.969577373298E-01  5.029212301778E-01  5.089562849399E-01  5.150637603592E-01
  5.212445254835E-01  5.274994597893E-01  5.338294533068E-01  5.402354067465E-01
  5.467182316274E-01  5.532788504069E-01  5.599181966118E-01  5.666372149712E-01
  5.734368615508E-01  5.803181038894E-01  5.872819211361E-01  5.943293041897E-01
  6.014612558400E-01  6.086787909101E-01  6.159829364010E-01  6.233747316378E-01
  6.308552284175E-01  6.384254911585E-01  6.460865970524E-01  6.538396362170E-01
  6.616857118516E-01  6.696259403938E-01  6.776614516786E-01  6.857933890987E-01
  6.940229097679E-01  7.023511846851E-01  7.107793989013E-01  7.193087516881E-01
  7.279404567084E-01  7.366757421889E-01  7.455158510952E-01  7.544620413083E-01
  7.635155858040E-01  7.726777728337E-01  7.819499061077E-01  7.913333049810E-01
  8.008293046407E-01  8.104392562964E-01  8.201645273720E-01  8.300065017004E-01
  8.399665797208E-01  8.500461786775E-01  8.602467328216E-01  8.705696936155E-01
  8.810165299389E-01  8.915887282981E-01  9.022877930377E-01  9.131152465542E-01
  9.240726295128E-01  9.351615010670E-01  9.463834390798E-01  9.577400403487E-01
  9.692329208329E-01  9.808637158829E-01  9.926340804735E-01  1.004545689439E+00
  1.016600237712E+00  1.028799440565E+00  1.041145033852E+00  1.053638774258E+00
  1.066282439549E+00  1.079077828824E+00  1.092026762770E+00  1.105131083923E+00
  1.118392656930E+00  1.131813368813E+00  1.145395129239E+00  1.159139870790E+00
  1.173049549239E+00  1.187126143830E+00  1.201371657556E+00  1.215788117447E+00
  1.230377574856E+00  1.245142105754E+00  1.260083811023E+00  1.275204816756E+00
  1.290507274557E+00  1.305993361851E+00  1.321665282194E+00  1.337525265580E+00
  1.353575568767E+00  1.369818475592E+00  1.386256297299E+00  1.402891372867E+00
  1.419726069341E+00  1.436762782173E+00  1.454003935559E+00  1.471451982786E+00
  1.489109406579E+00  1.506978719458E+00  1.525062464092E+00  1.543363213661E+00
  1.561883572225E+00  1.580626175092E+00  1.599593689193E+00  1.618788813463E+00
  1.638214279225E+00  1.657872850575E+00  1.677767324782E+00  1.697900532680E+00
  1.718275339072E+00  1.738894643141E+00  1.759761378858E+00  1.780878515405E+00
  1.802249057589E+00  1.823876046281E+00  1.845762558836E+00  1.867911709542E+00
  1.890326650056E+00  1.913010569857E+00  1.935966696695E+00  1.959198297056E+00
  1.982708676620E+00  2.006501180740E+00  2.030579194909E+00  2.054946145248E+00
  2.079605498991E+00  2.104560764979E+00  2.129815494158E+00  2.155373280088E+00
  2.181237759449E+00  2.207412612563E+00  2.233901563913E+00  2.260708382680E+00
  2.287836883272E+00  2.315290925872E+00  2.343074416982E+00  2.371191309986E+00
  2.399645605706E+00  2.428441352974E+00  2.457582649210E+00  2.487073641001E+00
  2.516918524693E+00  2.547121546989E+00  2.577687005553E+00  2.608619249619E+00
  2.639922680615E+00  2.671601752782E+00  2.703660973816E+00  2.736104905501E+00
  2.768938164367E+00  2.802165422340E+00  2.835791407408E+00  2.869820904297E+00
  2.904258755148E+00  2.939109860210E+00  2.974379178533E+00  3.010071728675E+00
  3.046192589419E+00  3.082746900492E+00  3.119739863298E+00  3.157176741658E+00
  3.195062862557E+00  3.233403616908E+00  3.272204460311E+00  3.311470913835E+00
  3.351208564801E+00  3.391423067578E+00  3.432120144389E+00  3.473305586122E+00
  3.514985253155E+00  3.557165076193E+00  3.599851057108E+00  3.643049269793E+00
  3.686765861030E+00  3.731007051363E+00  3.775779135979E+00  3.821088485611E+00
  3.866941547438E+00  3.913344846008E+00  3.960304984160E+00  4.007828643970E+00
  4.055922587697E+00  4.104593658750E+00  4.153848782655E+00  4.203694968046E+00
  4.254139307663E+00  4.305188979355E+00  4.356851247107E+00  4.409133462072E+00
  4.462043063617E+00  4.515587580381E+00  4.569774631345E+00  4.624611926921E+00
  4.680107270045E+00  4.736268557285E+00  4.793103779972E+00  4.850621025332E+00
  4.908828477636E+00  4.967734419368E+00  5.027347232400E+00  5.087675399189E+00
  5.148727503979E+00  5.210512234027E+00  5.273038380835E+00  5.336314841405E+00
  5.400350619502E+00  5.465154826936E+00  5.530736684859E+00  5.597105525078E+00
  5.664270791379E+00  5.732242040875E+00  5.801028945366E+00  5.870641292710E+00
  5.941088988223E+00  6.012382056081E+00  6.084530640754E+00  6.157545008443E+00
  6.231435548545E+00  6.306212775127E+00  6.381887328429E+00  6.458469976370E+00
  6.535971616086E+00  6.614403275479E+00  6.693776114785E+00  6.774101428163E+00
  6.855390645300E+00  6.937655333044E+00  7.020907197041E+00  7.105158083405E+00
  7.190419980406E+00  7.276705020171E+00  7.364025480413E+00  7.452393786178E+00
  7.541822511612E+00  7.632324381751E+00  7.723912274332E+00  7.816599221624E+00
  7.910398412284E+00  8.005323193231E+00  8.101387071550E+00  8.198603716409E+00
  8.296986961006E+00  8.396550804538E+00  8.497309414192E+00  8.599277127162E+00
  8.702468452688E+00  8.806898074121E+00  8.912580851010E+00  9.019531821222E+00
  9.127766203077E+00  9.237299397514E+00  9.348146990284E+00  9.460324754167E+00
  9.573848651217E+00  9.688734835032E+00  9.804999653052E+00  9.922659648889E+00
  1.004173156468E+01  1.016223234345E+01  1.028417913157E+01  1.040758928115E+01
  1.053248035253E+01  1.065887011676E+01  1.078677655816E+01  1.091621787686E+01
  1.104721249138E+01  1.117977904127E+01  1.131393638977E+01  1.144970362645E+01
  1.158710006996E+01  1.172614527080E+01  1.186685901405E+01  1.200926132222E+01
  1.215337245809E+01  1.229921292759E+01  1.244680348272E+01  1.259616512451E+01
  1.274731910600E+01  1.290028693528E+01  1.305509037850E+01  1.321175146304E+01
  1.337029248060E+01  1.353073599036E+01  1.369310482225E+01  1.385742208012E+01
  1.402371114508E+01  1.419199567882E+01  1.436229962696E+01  1.453464722249E+01
  1.470906298916E+01  1.488557174503E+01  1.506419860597E+01  1.524496898924E+01
  1.542790861711E+01  1.561304352051E+01  1.580040004276E+01  1.599000484327E+01
  1.618188490139E+01  1.637606752021E+01  1.657258033045E+01  1.677145129442E+01
  1.697270870995E+01  1.717638121447E+01  1.738249778904E+01  1.759108776251E+01
  1.780218081566E+01  1.801580698545E+01  1.823199666928E+01  1.845078062931E+01
  1.867218999686E+01  1.889625627682E+01  1.912301135214E+01  1.935248748837E+01
  1.958471733823E+01  1.981973394629E+01  2.005757075364E+01  2.029826160269E+01
  2.054184074192E+01  2.078834283082E+01  2.103780294479E+01  2.129025658013E+01
  2.154573965909E+01  2.180428853500E+01  2.206593999742E+01  2.233073127739E+01
  2.259870005272E+01  2.286988445335E+01  2.314432306679E+01  2.342205494359E+01
  2.370311960292E+01  2.398755703815E+01  2.427540772261E+01  2.456671261528E+01
  2.486151316666E+01  2.515985132466E+01  2.546176954056E+01  2.576731077505E+01
  2.607651850435E+01  2.638943672640E+01  2.670610996712E+01  2.702658328672E+01
  2.735090228616E+01  2.767911311360E+01  2.801126247096E+01  2.834739762061E+01
  2.868756639206E+01  2.903181718876E+01  2.938019899503E+01  2.973276138297E+01
  3.008955451956E+01  3.045062917380E+01  3.081603672388E+01  3.118582916457E+01
  3.156005911455E+01  3.193877982392E+01  3.232204518181E+01  3.270990972399E+01
  3.310242864068E+01  3.349965778436E+01  3.390165367778E+01  3.430847352191E+01
  3.472017520417E+01  3.513681730662E+01  3.555845911430E+01  3.598516062367E+01
  3.641698255116E+01  3.685398634177E+01  3.729623417787E+01  3.774378898801E+01
  3.819671445586E+01  3.865507502933E+01  3.911893592969E+01  3.958836316084E+01
  4.006342351877E+01  4.054418460100E+01  4.103071481621E+01  4.152308339400E+01
  4.202136039473E+01  4.252561671947E+01  4.303592412010E+01  4.355235520954E+01
  4.407498347206E+01
</grid-data>
</grid>
<valence-charge total-charge="18" is-unscreening-charge="yes"
 rescaled-to-z-pseudo="no">
<radfunc>
<data npts="457">
  8.813659962282E-02  8.815172016080E-02  8.819956648318E-02  8.828821632841E-02
  8.843826500416E-02  8.866418825953E-02  8.900809389037E-02  8.947885588171E-02
  9.010619892306E-02  9.096866456024E-02  9.210950615542E-02  9.355195195723E-02
  9.557610205739E-02  9.801758466314E-02  1.007898541516E-01  1.043949383622E-01
  1.090910254670E-01  1.140791577400E-01  1.203085322601E-01  1.280923608622E-01
  1.378221125323E-01  1.473314912337E-01  1.587010049852E-01  1.722931303971E-01
  1.885389974534E-01  2.079505916018E-01  2.311348447782E-01  2.514261124117E-01
  2.745905762714E-01  3.010238676454E-01  3.311727415889E-01  3.655408377865E-01
  4.046948809487E-01  4.492712980781E-01  4.999832098426E-01  5.576277275818E-01
  6.230934551185E-01  6.973680543906E-01  7.523139975153E-01  8.120109116469E-01
  8.768340662182E-01  9.471828181267E-01  1.023481282892E+00  1.106178866553E+00
  1.195750623767E+00  1.292697402894E+00  1.397545733832E+00  1.510847409031E+00
  1.633178702502E+00  1.765139165851E+00  1.907349934434E+00  2.060451470836E+00
  2.225100667116E+00  2.401967221904E+00  2.591729203614E+00  2.795067707178E+00
  3.012660509009E+00  3.245174623913E+00  3.493257668756E+00  3.757527941485E+00
  4.038563131116E+00  4.336887585325E+00  4.652958077971E+00  4.987148040037E+00
  5.339730244966E+00  5.710857973956E+00  6.100544729282E+00  6.302308444724E+00
  6.508642614892E+00  6.719499797355E+00  6.934819563838E+00  7.154527743850E+00
  7.378535662143E+00  7.606739373452E+00  7.839018898327E+00  8.075237464288E+00
  8.315240756920E+00  8.558856185974E+00  8.805892171963E+00  9.056137459157E+00
  9.309360461375E+00  9.565308647352E+00  9.823707972928E+00  1.008426236773E+01
  1.034665328438E+01  1.061053931874E+01  1.087555590995E+01  1.114131512933E+01
  1.140740556767E+01  1.167339233041E+01  1.193881715047E+01  1.220319862861E+01
  1.246603261118E+01  1.272679271489E+01  1.298493100830E+01  1.323987885916E+01
  1.349104795638E+01  1.373783151493E+01  1.397960567111E+01  1.421573107477E+01
  1.444555468418E+01  1.466841176774E+01  1.488362811571E+01  1.509052246314E+01
  1.528840912378E+01  1.547660083264E+01  1.565441179267E+01  1.582116091899E+01
  1.597617527121E+01  1.611879366223E+01  1.624837042872E+01  1.636427934592E+01
  1.646591766610E+01  1.655271025738E+01  1.662411381606E+01  1.667962112310E+01
  1.671876531183E+01  1.674112411161E+01  1.674632402905E+01  1.673404442609E+01
  1.670402145201E+01  1.665605178443E+01  1.658999613318E+01  1.650578245947E+01
  1.640340886286E+01  1.628294608830E+01  1.614453960645E+01  1.598841122200E+01
  1.581486016706E+01  1.562426363956E+01  1.541707675071E+01  1.519383185016E+01
  1.495513720302E+01  1.470167499941E+01  1.443419868400E+01  1.415352960123E+01
  1.386055296004E+01  1.355621313107E+01  1.324150829857E+01  1.291748449926E+01
  1.258522908974E+01  1.224586369416E+01  1.190053669326E+01  1.155041532503E+01
  1.119667747557E+01  1.084050324652E+01  1.048306639202E+01  1.012552572314E+01
  9.769016582325E+00  9.414642491862E+00  9.063467081883E+00  8.716506401538E+00
  8.374721714297E+00  8.039012873208E+00  7.710212365108E+00  7.389080104090E+00
  7.076299044171E+00  6.772471669158E+00  6.478117404497E+00  6.193670981572E+00
  5.919481769850E+00  5.655814076743E+00  5.402848399415E+00  5.160683597394E+00
  4.929339940058E+00  4.708762969230E+00  4.498828104562E+00  4.299345908337E+00
  4.110067917066E+00  3.930692939953E+00  3.760873719018E+00  3.600223842482E+00
  3.448324801910E+00  3.304733084400E+00  3.168987193761E+00  3.040614498842E+00
  2.919137812774E+00  2.804081613688E+00  2.694977825173E+00  2.591371083257E+00
  2.492823425876E+00  2.398918350596E+00  2.309264196853E+00  2.223496820177E+00
  2.141281538017E+00  2.062314339921E+00  1.986322369078E+00  1.913063697618E+00
  1.842326434327E+00  1.773926775819E+00  1.707704974844E+00  1.643520703862E+00
  1.581252378543E+00  1.520796186057E+00  1.462065008916E+00  1.404987217410E+00
  1.349505365330E+00  1.295574825074E+00  1.243161975797E+00  1.192240652598E+00
  1.142787718018E+00  1.094781386602E+00  1.048200813329E+00  1.003025002805E+00
  9.592322061182E-01  9.167994484695E-01  8.757024737633E-01  8.359167722374E-01
  7.974190909542E-01  7.601874465479E-01  7.242005621214E-01  6.894377822716E-01
  6.558788483376E-01  6.235037245591E-01  5.922924459772E-01  5.622249892767E-01
  5.332811652499E-01  5.054405314973E-01  4.786823239294E-01  4.529854056048E-01
  4.283282314253E-01  4.046888272180E-01  3.820447817477E-01  3.603732502403E-01
  3.396509680376E-01  3.198542730601E-01  3.009591358119E-01  2.829411957346E-01
  2.657758027853E-01  2.494380631952E-01  2.339028884411E-01  2.191450465463E-01
  2.051392149104E-01  1.918600339253E-01  1.792821607803E-01  1.673803228336E-01
  1.561293700884E-01  1.455043263385E-01  1.354804386232E-01  1.260332246872E-01
  1.171385181960E-01  1.087725115044E-01  1.009117958182E-01  9.353339862322E-02
  8.661481829004E-02  8.013405578610E-02  7.406964345062E-02  6.840067080574E-02
  6.310680739361E-02  5.816832264301E-02  5.356610278234E-02  4.928166482796E-02
  4.529716768942E-02  4.159542044566E-02  3.815988785941E-02  3.497469321050E-02
  3.202461854274E-02  2.929510243301E-02  2.677223540471E-02  2.444275312091E-02
  2.229402750450E-02  2.031405594303E-02  1.849144874492E-02  1.681541502027E-02
  1.527574716444E-02  1.386280412447E-02  1.256749362881E-02  1.138125355836E-02
  1.029603263284E-02  9.304270579996E-03  8.398877947605E-03  7.573215708693E-03
  6.821074800125E-03  6.136655723224E-03  5.514548323104E-03  4.949711851044E-03
  4.437455401594E-03  3.973418803677E-03  3.553554032632E-03  3.174107198360E-03
  2.831601153470E-03  2.522818754751E-03  2.244786801586E-03  1.994760666036E-03
  1.770209621420E-03  1.568802869271E-03  1.388396258571E-03  1.227019686182E-03
  1.082865163299E-03  9.542755295647E-04  8.397337940395E-04  7.378530805793E-04
  6.473671540487E-04  5.671215032891E-04  4.960649566271E-04  4.332418059431E-04
  3.777844157976E-04  3.289062947730E-04  2.858956069610E-04  2.481091023609E-04
  2.149664457971E-04  1.859449248044E-04  1.605745177181E-04  1.384333039521E-04
  1.191431991334E-04  1.023659983866E-04  8.779971163451E-05  7.517517530244E-05
  6.425292529970E-05  5.482031660123E-05  4.668887518593E-05  3.969186850589E-05
  3.368208107465E-05  2.852978217828E-05  2.412087313433E-05  2.035520195622E-05
  1.714503372415E-05  1.441366542145E-05  1.209417446479E-05  1.012829063903E-05
  8.465381638723E-06  7.061542917504E-06  5.878783049628E-06  4.884296312937E-06
  4.049814705097E-06  3.351032102851E-06  2.767093763780E-06  2.280144848923E-06
  1.874932110118E-06  1.538453335783E-06  1.259649581130E-06  1.029135622020E-06
  8.389644645476E-07  6.824221140775E-07  5.538491573450E-07  4.484860390341E-07
  3.623392199676E-07  2.920656879010E-07  2.348735543259E-07  1.884367122601E-07
  1.508217514679E-07  1.204255297832E-07  9.592198313403E-08  7.621692352016E-08
  6.040972461094E-08  4.776092990429E-08  3.766493958915E-08  2.962704046321E-08
  2.324413952347E-08  1.818864718823E-08  1.419503150349E-08  1.104863106524E-08
  8.576372630803E-09  6.639090322671E-09  5.125187715110E-09  3.945422648624E-09
  3.028627995243E-09  2.318210397645E-09  1.769293772957E-09  1.346395601803E-09
  1.021542160065E-09  7.727442942083E-10  5.827684473788E-10  4.381487295675E-10
  3.283951711844E-10  2.453611522133E-10  1.827395752110E-10  1.356628388144E-10
  1.003862335580E-10  7.403816609075E-11  5.442374415139E-11  3.987082845312E-11
  2.910976924162E-11  2.117977167363E-11  1.535624064168E-11  1.109459746610E-11
  7.986984489320E-12  5.729018044444E-12  4.094348109987E-12  2.915261316876E-12
  2.067945307537E-12  1.461335304467E-12  1.028703370777E-12  7.213397190164E-13
  5.038237240121E-13  3.504982850800E-13  2.428515464684E-13  1.675801051382E-13
  1.151620291084E-13  7.880972541291E-14  5.370467608689E-14  3.644047470362E-14
  2.461915662300E-14  1.655986710875E-14  1.108950308247E-14  7.392913741048E-15
  4.906185613886E-15  3.240957045963E-15  2.130980290577E-15  1.394562709409E-15
  9.082897730467E-16  5.887264747721E-16  3.797346047798E-16  2.437241967023E-16
  1.556478286306E-16  9.889792992267E-17  6.251791732214E-17  3.931588796618E-17
  2.459522333341E-17  1.530470411816E-17  9.472460144472E-18  5.830908880727E-18
  3.569577778925E-18  2.173079864685E-18  1.315477822851E-18  7.917913867978E-19
  4.738353161324E-19  2.819052072500E-19  1.667273899496E-19  9.801840866352E-20
  5.727607372311E-20  3.326373343253E-20  1.919849172180E-20  1.101098725770E-20
  0.000000000000E+00  0.000000000000E+00  0.000000000000E+00  0.000000000000E+00
  0.000000000000E+00  0.000000000000E+00  0.000000000000E+00  0.000000000000E+00
  0.000000000000E+00  0.000000000000E+00  0.000000000000E+00  0.000000000000E+00
  0.000000000000E+00  0.000000000000E+00  0.000000000000E+00  0.000000000000E+00
  0.000000000000E+00  0.000000000000E+00  0.000000000000E+00  0.000000000000E+00
  0.000000000000E+00  0.000000000000E+00  0.000000000000E+00  0.000000000000E+00
  0.000000000000E+00  0.000000000000E+00  0.000000000000E+00  0.000000000000E+00
  0.000000000000E+00  0.000000000000E+00  0.000000000000E+00  0.000000000000E+00
  0.000000000000E+00
</data>
</radfunc>
</valence-charge>
<pseudocore-charge matching-radius="0.924072629513"
 number-of-continuous-derivatives="4">
<annotation model-charge-form="Teter function with specified parameters" />
<radfunc>
<data npts="290">
  8.990215439804E+01  8.989746198163E+01  8.988343446620E+01  8.986003073188E+01
  8.982568739579E+01  8.978186306835E+01  8.972600376524E+01  8.966203206105E+01
  8.959009252738E+01  8.950618597236E+01  8.941159121367E+01  8.930875187613E+01
  8.918443496065E+01  8.905456401498E+01  8.892479075964E+01  8.877526615875E+01
  8.860302309452E+01  8.843969427532E+01  8.825601080622E+01  8.804948414035E+01
  8.781733442439E+01  8.761109332215E+01  8.738472518963E+01  8.713632343544E+01
  8.686381295133E+01  8.656493779170E+01  8.623724852641E+01  8.597098284251E+01
  8.568581915785E+01  8.538048442021E+01  8.505363030669E+01  8.470383043130E+01
  8.432957773776E+01  8.392928214335E+01  8.350126850999E+01  8.304377503163E+01
  8.255495214001E+01  8.203286204639E+01  8.166532344797E+01  8.128147921280E+01
  8.088069078818E+01  8.046230314333E+01  8.002564527291E+01  7.957003083232E+01
  7.909475891821E+01  7.859911500907E+01  7.808237208141E+01  7.754379191816E+01
  7.698262662679E+01  7.639812038558E+01  7.578951143734E+01  7.515603435073E+01
  7.449692256999E+01  7.381141127466E+01  7.309874057112E+01  7.235815903825E+01
  7.158892764955E+01  7.079032409376E+01  6.996164751566E+01  6.910222369760E+01
  6.821141070119E+01  6.728860498656E+01  6.633324802405E+01  6.534483341027E+01
  6.432291449622E+01  6.326711253059E+01  6.217712531543E+01  6.161924097871E+01
  6.105273636442E+01  6.047759938640E+01  5.989382454623E+01  5.930141325905E+01
  5.870037418570E+01  5.809072357060E+01  5.747248558507E+01  5.684569267543E+01
  5.621038591534E+01  5.556661536175E+01  5.491444041375E+01  5.425393017351E+01
  5.358516380845E+01  5.290823091371E+01  5.222323187399E+01  5.153027822348E+01
  5.082949300294E+01  5.012101111246E+01  4.940497965864E+01  4.868155829474E+01
  4.795091955227E+01  4.721324916228E+01  4.646874636479E+01  4.571762420434E+01
  4.496010980993E+01  4.419644465707E+01  4.342688481010E+01  4.265170114232E+01
  4.187117953179E+01  4.108562103029E+01  4.029534200298E+01  3.950067423625E+01
  3.870196501108E+01  3.789957713915E+01  3.709388895904E+01  3.628529428970E+01
  3.547420233823E+01  3.466103755923E+01  3.384623946287E+01  3.303026236858E+01
  3.221357510193E+01  3.139666063143E+01  3.058001564296E+01  2.976415004887E+01
  2.894958642952E+01  2.813685940458E+01  2.732651493224E+01  2.651910953401E+01
  2.571520944363E+01  2.491538967848E+01  2.412023303227E+01  2.333032898835E+01
  2.254627255308E+01  2.176866300932E+01  2.099810259038E+01  2.023519507562E+01
  1.948054430893E+01  1.873475264248E+01  1.799841930825E+01  1.727213872082E+01
  1.655649871564E+01  1.585207872742E+01  1.515944791441E+01  1.447916323500E+01
  1.381176748369E+01  1.315778729477E+01  1.251773112243E+01  1.189208720708E+01
  1.128132153864E+01  1.068587582802E+01  1.010616549920E+01  9.542577714820E+00
  8.995469449008E+00  8.465165621799E+00  7.951957310120E+00  7.456100050727E+00
  6.977812250916E+00  6.517273723061E+00  6.074624359159E+00  5.649962961543E+00
  5.243346245693E+00  4.854788030738E+00  4.484258632611E+00  4.131684474089E+00
  3.796947924881E+00  3.479887383750E+00  3.180297613134E+00  2.897930335047E+00
  2.632495095082E+00  2.383660399143E+00  2.151055125141E+00  1.934270209215E+00
  1.732860603260E+00  1.546347497501E+00  1.374220798717E+00  1.215941851447E+00
  1.070946386190E+00  9.386476752119E-01  8.184398732853E-01  7.097015173712E-01
  6.117991561877E-01  5.240910776703E-01  4.459310997083E-01  3.766723872465E-01
  3.156712569697E-01  2.622909293892E-01  2.159051873051E-01  1.759018993764E-01
  1.416863679492E-01  1.126844614159E-01  8.834549323030E-02  6.814481231534E-02
  5.158607295797E-02  3.820315638809E-02  2.756172103988E-02  1.926036394424E-02
  1.293138172051E-02  8.241126126390E-03  4.889955966693E-03  2.611794215666E-03
  1.173306316344E-03  3.727226130952E-04  3.833456798183E-05  2.670062029429E-05
  2.206030838926E-04  5.268021572595E-04  8.736367779406E-04  1.208524538027E-03
  1.495414069657E-03  1.712243122723E-03  1.848453945451E-03  1.902614542773E-03
  1.880189978293E-03  1.791502206504E-03  1.649910128840E-03  1.470233866976E-03
  1.267438892043E-03  1.055586930212E-03  8.470518028878E-04  6.519898887630E-04
  4.780470520124E-04  3.302769877778E-04  2.112402833531E-04  1.212493232900E-04
  5.872165756827E-05  2.060370547544E-05  2.827698392552E-06  7.674941039598E-07
  9.663152277641E-06  2.498968643712E-05  4.275186687357E-05  5.969394750483E-05
  7.342029753468E-05  8.242969654463E-05  8.607208027608E-05  8.444143507931E-05
  7.822204167251E-05  6.850717599258E-05  5.660961910869E-05  4.388197068650E-05
  3.156198962103E-05  2.065430371236E-05  1.185523070530E-05  5.522586018706E-06
  1.687685318146E-06  1.027228155891E-07  3.136881649748E-07  1.747236347326E-06
  3.799568657343E-06  5.916388983235E-06  7.655187302691E-06  8.724159204595E-06
  8.995587552194E-06  8.495033902238E-06  7.370765915237E-06  5.850102460687E-06
  4.190527871027E-06  2.633402621745E-06  1.366941976086E-06  5.030718165395E-07
  7.015711947219E-08  0.000000000000E+00  0.000000000000E+00  0.000000000000E+00
  0.000000000000E+00  0.000000000000E+00  0.000000000000E+00  0.000000000000E+00
  0.000000000000E+00  0.000000000000E+00  0.000000000000E+00  0.000000000000E+00
  0.000000000000E+00  0.000000000000E+00  0.000000000000E+00  0.000000000000E+00
  0.000000000000E+00  0.000000000000E+00  0.000000000000E+00  0.000000000000E+00
  0.000000000000E+00  0.000000000000E+00  0.000000000000E+00  0.000000000000E+00
  0.000000000000E+00  0.000000000000E+00  0.000000000000E+00  0.000000000000E+00
  0.000000000000E+00  0.000000000000E+00  0.000000000000E+00  0.000000000000E+00
  0.000000000000E+00  0.000000000000E+00  0.000000000000E+00  0.000000000000E+00
  0.000000000000E+00  0.000000000000E+00  0.000000000000E+00  0.000000000000E+00
  0.000000000000E+00  0.000000000000E+00
</data>
</radfunc>
</pseudocore-charge>
<semilocal-potentials set="scalar_relativistic">
<slps n="6" l="s" rc="2.20741261256" eref="-0.804033098326">
<radfunc>
<data npts="290">
 -3.609838905106E+00 -3.611453133422E+00 -3.616276990437E+00 -3.624319501886E+00
 -3.636108460589E+00 -3.651129759237E+00 -3.670240216315E+00 -3.692076684700E+00
 -3.716570149548E+00 -3.745054392226E+00 -3.777059428166E+00 -3.811725143882E+00
 -3.853452492649E+00 -3.896837017862E+00 -3.939978898687E+00 -3.989428371573E+00
 -4.046050484578E+00 -4.099407987956E+00 -4.159029699092E+00 -4.225583123999E+00
 -4.299789383477E+00 -4.365183069100E+00 -4.436389511965E+00 -4.513848982825E+00
 -4.598019932494E+00 -4.689376512792E+00 -4.788405264863E+00 -4.868009100332E+00
 -4.952416714812E+00 -5.041837488990E+00 -5.136478440081E+00 -5.236542225775E+00
 -5.342224888506E+00 -5.453713329700E+00 -5.571182507093E+00 -5.694792352585E+00
 -5.824684413396E+00 -5.960978225633E+00 -6.055444729151E+00 -6.152819209861E+00
 -6.253115700793E+00 -6.356341174168E+00 -6.462494952459E+00 -6.571568110981E+00
 -6.683542875703E+00 -6.798392020370E+00 -6.916078267459E+00 -7.036553697870E+00
 -7.159759174619E+00 -7.285623786189E+00 -7.414064315427E+00 -7.544984740206E+00
 -7.678275772229E+00 -7.813814440510E+00 -7.951463726131E+00 -8.091072254897E+00
 -8.232474054388E+00 -8.375488381815E+00 -8.519919628781E+00 -8.665557308814E+00
 -8.812176133126E+00 -8.959536179656E+00 -9.107383160003E+00 -9.255448788402E+00
 -9.403451256465E+00 -9.551095816996E+00 -9.698075479939E+00 -9.771216889928E+00
 -9.844071823315E+00 -9.916598843489E+00 -9.988755922034E+00 -1.006050047443E+01
 -1.013178939771E+01 -1.020257911017E+01 -1.027282559309E+01 -1.034248443456E+01
 -1.041151087553E+01 -1.047985985793E+01 -1.054748607520E+01 -1.061434402512E+01
 -1.068038806503E+01 -1.074557246970E+01 -1.080985149168E+01 -1.087317942454E+01
 -1.093551066890E+01 -1.099679980151E+01 -1.105700164751E+01 -1.111607135597E+01
 -1.117396447907E+01 -1.123063705478E+01 -1.128604569364E+01 -1.134014766946E+01
 -1.139290101447E+01 -1.144426461883E+01 -1.149419833505E+01 -1.154266308708E+01
 -1.158962098471E+01 -1.163503544306E+01 -1.167887130748E+01 -1.172109498389E+01
 -1.176167457450E+01 -1.180058001899E+01 -1.183778324087E+01 -1.187325829883E+01
 -1.190698154273E+01 -1.193893177370E+01 -1.196909040774E+01 -1.199744164193E+01
 -1.202397262242E+01 -1.204867361280E+01 -1.207153816181E+01 -1.209256326849E+01
 -1.211174954334E+01 -1.212910136344E+01 -1.214462701942E+01 -1.215833885218E+01
 -1.217025337693E+01 -1.218039139213E+01 -1.218877807084E+01 -1.219544303186E+01
 -1.220042038829E+01 -1.220374877072E+01 -1.220547132284E+01 -1.220563566688E+01
 -1.220429383664E+01 -1.220150217593E+01 -1.219732120021E+01 -1.219181541956E+01
 -1.218505312099E+01 -1.217710610827E+01 -1.216804939764E+01 -1.215796086774E+01
 -1.214692086216E+01 -1.213501174319E+01 -1.212231739554E+01 -1.210892267864E+01
 -1.209491282685E+01 -1.208037279681E+01 -1.206538656171E+01 -1.205003635306E+01
 -1.203440185090E+01 -1.201855932484E+01 -1.200258072918E+01 -1.198653275722E+01
 -1.197047586176E+01 -1.195446325083E+01 -1.193853987092E+01 -1.192274139229E+01
 -1.190709321509E+01 -1.189160951764E+01 -1.187629237205E+01 -1.186113095501E+01