<?xml version="1.0" encoding="UTF-8" ?>
<psml version="1.1" energy_unit="hartree" length_unit="bohr"
 uuid="e5ebd880-be41-11e7-659b-074ddfc7bd15"
 xmlns="http://esl.cecam.org/PSML/ns/1.1">
<provenance creator="ONCVPSP-3.3.0+psml-3.3.0-73 (scalar-relativistic)"
 date="2017-10-31">
<annotation action="semilocal-pseudopotential-generation"
 action-cont="projectors-generation" />
<input-file name="oncvpsp-input">
<![CDATA[# atsym z nc nv iexc psfile
Mn 25 3 4 4 upf
# n l f
1 0 2.0
2 0 2.0
2 1 6.0
3 0 2.0
3 1 6.0
3 2 5.0
4 0 2.0
# lmax
2
# l rc ep ncon nbas qcut
0 1.4 0.0 4 7 8.2
1 1.2 0.0 4 7 10.4
2 1.6 0.0 4 7 9.8
# lloc lpopt rc5 dvloc0
4 5 1.2 0.0
# l nproj debl
0 2 1.0
1 2 1.0
2 2 1.0
# icmod fcfact
3 4 1.75
# epsh1 epsh2 depsh
-50.0 12.0 0.02
# rlmax drl
6.0 0.01
 0
]]>
</input-file>
</provenance>
<pseudo-atom-spec atomic-label="Mn" atomic-number="25" z-pseudo="15"
 flavor="Hamann&apos;s oncvpsp" relativity="scalar" spin-dft="no"
 core-corrections="yes">
<annotation pseudo-energy="-103.553066575" />
<exchange-correlation>
<annotation oncvpsp-xc-code="4" oncvpsp-xc-type="GGA -- Perdew-Burke-Ernzerhof" />
<libxc-info number-of-functionals="2">
<functional name="Perdew, Burke &amp; Ernzerhof (GGA)" type="exchange" id="101" />
<functional name="Perdew, Burke &amp; Ernzerhof (GGA)" type="correlation"
 id="130" />
</libxc-info>
</exchange-correlation>
<valence-configuration total-valence-charge="15">
<shell n="3" l="s" occupation="2" />
<shell n="3" l="p" occupation="6" />
<shell n="3" l="d" occupation="5" />
<shell n="4" l="s" occupation="2" />
</valence-configuration>
</pseudo-atom-spec>
<grid npts="458">
<annotation type="sampled from oncvpsp log grid"
 recipe="r(i:1..N) = r1*exp(a*(i-1)) + r=0; resampled"
 recipe-cont="r1: scale; a: step" scale="0.200000000000E-04"
 step="0.119285708653E-01" delta="0.500000000000E-02" rmax="44.3769870573" />
<grid-data>
  0.000000000000E+00  5.007342349535E-03  1.012179466165E-02  1.518430601833E-02
  2.021749050673E-02  2.536045174936E-02  3.069341316587E-02  3.584196802331E-02
  4.086744488362E-02  4.604501413403E-02  5.126337829839E-02  5.639639233938E-02
  6.204337627505E-02  6.744643678951E-02  7.245061657011E-02  7.782608083168E-02
  8.360037697896E-02  8.873823744356E-02  9.419185737129E-02  9.998064251273E-02
  1.061251912451E-01  1.113116283280E-01  1.167515314288E-01  1.224572876681E-01
  1.284418895367E-01  1.347189644807E-01  1.413028059321E-01  1.464509939291E-01
  1.517867496073E-01  1.573169067565E-01  1.630485481470E-01  1.689890146010E-01
  1.751459143940E-01  1.815271329993E-01  1.881408431876E-01  1.949955154940E-01
  2.020999290667E-01  2.094631829112E-01  2.145204619994E-01  2.196998440339E-01
  2.250042770683E-01  2.304367803338E-01  2.360004459582E-01  2.416984407254E-01
  2.475340078783E-01  2.535104689645E-01  2.596312257271E-01  2.658997620411E-01
  2.723196458958E-01  2.788945314263E-01  2.856281609931E-01  2.925243673121E-01
  2.995870756365E-01  3.068203059907E-01  3.142281754585E-01  3.218149005268E-01
  3.295847994851E-01  3.375422948838E-01  3.456919160515E-01  3.540383016727E-01
  3.625862024283E-01  3.713404836997E-01  3.803061283381E-01  3.894882395007E-01
  3.988920435552E-01  4.085228930548E-01  4.183862697847E-01  4.234069050222E-01
  4.284877878824E-01  4.336296413370E-01  4.388331970331E-01  4.440991953975E-01
  4.494283857422E-01  4.548215263711E-01  4.602793846876E-01  4.658027373038E-01
  4.713923701515E-01  4.770490785933E-01  4.827736675364E-01  4.885669515469E-01
  4.944297549654E-01  5.003629120250E-01  5.063672669693E-01  5.124436741729E-01
  5.185929982630E-01  5.248161142422E-01  5.311139076131E-01  5.374872745044E-01
  5.439371217985E-01  5.504643672601E-01  5.570699396672E-01  5.637547789432E-01
  5.705198362905E-01  5.773660743260E-01  5.842944672179E-01  5.913060008245E-01
  5.984016728344E-01  6.055824929084E-01  6.128494828233E-01  6.202036766172E-01
  6.276461207366E-01  6.351778741855E-01  6.428000086757E-01  6.505136087798E-01
  6.583197720852E-01  6.662196093502E-01  6.742142446624E-01  6.823048155983E-01
  6.904924733855E-01  6.987783830661E-01  7.071637236629E-01  7.156496883469E-01
  7.242374846070E-01  7.329283344223E-01  7.417234744354E-01  7.506241561286E-01
  7.596316460022E-01  7.687472257542E-01  7.779721924632E-01  7.873078587728E-01
  7.967555530781E-01  8.063166197150E-01  8.159924191516E-01  8.257843281814E-01
  8.356937401196E-01  8.457220650010E-01  8.558707297810E-01  8.661411785384E-01
  8.765348726809E-01  8.870532911530E-01  8.976979306469E-01  9.084703058146E-01
  9.193719494844E-01  9.304044128782E-01  9.415692658328E-01  9.528680970228E-01
  9.643025141870E-01  9.758741443573E-01  9.875846340896E-01  9.994356496986E-01
  1.011428877495E+00  1.023566024025E+00  1.035848816313E+00  1.048279002109E+00
  1.060858350134E+00  1.073588650336E+00  1.086471714140E+00  1.099509374710E+00
  1.112703487206E+00  1.126055929053E+00  1.139568600201E+00  1.153243423404E+00
  1.167082344485E+00  1.181087332618E+00  1.195260380610E+00  1.209603505177E+00
  1.224118747239E+00  1.238808172206E+00  1.253673870273E+00  1.268717956716E+00
  1.283942572196E+00  1.299349883063E+00  1.314942081660E+00  1.330721386639E+00
  1.346690043279E+00  1.362850323798E+00  1.379204527684E+00  1.395754982016E+00
  1.412504041800E+00  1.429454090302E+00  1.446607539386E+00  1.463966829858E+00
  1.481534431817E+00  1.499312844998E+00  1.517304599138E+00  1.535512254328E+00
  1.553938401380E+00  1.572585662197E+00  1.591456690143E+00  1.610554170425E+00
  1.629880820470E+00  1.649439390315E+00  1.669232662999E+00  1.689263454955E+00
  1.709534616415E+00  1.730049031812E+00  1.750809620193E+00  1.771819335636E+00
  1.793081167663E+00  1.814598141675E+00  1.836373319375E+00  1.858409799208E+00
  1.880710716798E+00  1.903279245400E+00  1.926118596345E+00  1.949232019501E+00
  1.972622803735E+00  1.996294277380E+00  2.020249808708E+00  2.044492806413E+00
  2.069026720090E+00  2.093855040731E+00  2.118981301219E+00  2.144409076834E+00
  2.170141985756E+00  2.196183689585E+00  2.222537893860E+00  2.249208348587E+00
  2.276198848770E+00  2.303513234955E+00  2.331155393774E+00  2.359129258500E+00
  2.387438809602E+00  2.416088075317E+00  2.445081132221E+00  2.474422105807E+00
  2.504115171077E+00  2.534164553130E+00  2.564574527767E+00  2.595349422101E+00
  2.626493615166E+00  2.658011538548E+00  2.689907677010E+00  2.722186569135E+00
  2.754852807964E+00  2.787911041660E+00  2.821365974160E+00  2.855222365850E+00
  2.889485034240E+00  2.924158854651E+00  2.959248760906E+00  2.994759746037E+00
  3.030696862990E+00  3.067065225346E+00  3.103870008050E+00  3.141116448146E+00
  3.178809845524E+00  3.216955563670E+00  3.255559030434E+00  3.294625738800E+00
  3.334161247665E+00  3.374171182637E+00  3.414661236829E+00  3.455637171671E+00
  3.497104817731E+00  3.539070075544E+00  3.581538916450E+00  3.624517383448E+00
  3.668011592049E+00  3.712027731154E+00  3.756572063927E+00  3.801650928694E+00
  3.847270739839E+00  3.893437988717E+00  3.940159244582E+00  3.987441155516E+00
  4.035290449383E+00  4.083713934775E+00  4.132718501993E+00  4.182311124016E+00
  4.232498857505E+00  4.283288843795E+00  4.334688309920E+00  4.386704569639E+00
  4.439345024475E+00  4.492617164769E+00  4.546528570746E+00  4.601086913595E+00
  4.656299956558E+00  4.712175556037E+00  4.768721662709E+00  4.825946322662E+00
  4.883857678534E+00  4.942463970676E+00  5.001773538324E+00  5.061794820784E+00
  5.122536358633E+00  5.184006794937E+00  5.246214876476E+00  5.309169454994E+00
  5.372879488454E+00  5.437354042315E+00  5.502602290823E+00  5.568633518313E+00
  5.635457120533E+00  5.703082605979E+00  5.771519597251E+00  5.840777832418E+00
  5.910867166407E+00  5.981797572404E+00  6.053579143273E+00  6.126222092992E+00
  6.199736758108E+00  6.274133599205E+00  6.349423202396E+00  6.425616280824E+00
  6.502723676194E+00  6.580756360309E+00  6.659725436632E+00  6.739642141872E+00
  6.820517847574E+00  6.902364061745E+00  6.985192430486E+00  7.069014739652E+00
  7.153842916528E+00  7.239689031526E+00  7.326565299904E+00  7.414484083503E+00
  7.503457892505E+00  7.593499387215E+00  7.684621379862E+00  7.776836836420E+00
  7.870158878457E+00  7.964600784999E+00  8.060175994419E+00  8.156898106352E+00
  8.254780883628E+00  8.353838254232E+00  8.454084313282E+00  8.555533325042E+00
  8.658199724942E+00  8.762098121642E+00  8.867243299101E+00  8.973650218691E+00
  9.081334021315E+00  9.190310029571E+00  9.300593749925E+00  9.412200874925E+00
  9.525147285424E+00  9.639449052849E+00  9.755122441483E+00  9.872183910781E+00
  9.990650117710E+00  1.011053791912E+01  1.023186437415E+01  1.035464674664E+01
  1.047890250760E+01  1.060464933769E+01  1.073190512975E+01  1.086068799130E+01
  1.099101624720E+01  1.112290844216E+01  1.125638334347E+01  1.139145994359E+01
  1.152815746291E+01  1.166649535247E+01  1.180649329670E+01  1.194817121626E+01
  1.209154927085E+01  1.223664786211E+01  1.238348763645E+01  1.253208948809E+01
  1.268247456194E+01  1.283466425669E+01  1.298868022777E+01  1.314454439050E+01
  1.330227892319E+01  1.346190627027E+01  1.362344914551E+01  1.378693053526E+01
  1.395237370168E+01  1.411980218610E+01  1.428923981233E+01  1.446071069008E+01
  1.463423921836E+01  1.480985008898E+01  1.498756829005E+01  1.516741910953E+01
  1.534942813884E+01  1.553362127651E+01  1.572002473183E+01  1.590866502861E+01
  1.609956900895E+01  1.629276383706E+01  1.648827700311E+01  1.668613632714E+01
  1.688636996307E+01  1.708900640263E+01  1.729407447946E+01  1.750160337321E+01
  1.771162261369E+01  1.792416208505E+01  1.813925203007E+01  1.835692305443E+01
  1.857720613109E+01  1.880013260466E+01  1.902573419592E+01  1.925404300627E+01
  1.948509152234E+01  1.971891262061E+01  1.995553957206E+01  2.019500604692E+01
  2.043734611949E+01  2.068259427292E+01  2.093078540419E+01  2.118195482905E+01
  2.143613828699E+01  2.169337194644E+01  2.195369240979E+01  2.221713671871E+01
  2.248374235934E+01  2.275354726765E+01  2.302658983486E+01  2.330290891288E+01
  2.358254381983E+01  2.386553434567E+01  2.415192075782E+01  2.444174380691E+01
  2.473504473260E+01  2.503186526939E+01  2.533224765262E+01  2.563623462445E+01
  2.594386943995E+01  2.625519587322E+01  2.657025822370E+01  2.688910132239E+01
  2.721177053826E+01  2.753831178472E+01  2.786877152613E+01  2.820319678445E+01
  2.854163514586E+01  2.888413476761E+01  2.923074438482E+01  2.958151331744E+01
  2.993649147725E+01  3.029572937497E+01  3.065927812747E+01  3.102718946500E+01
  3.139951573858E+01  3.177630992745E+01  3.215762564658E+01  3.254351715434E+01
  3.293403936019E+01  3.332924783251E+01  3.372919880650E+01  3.413394919218E+01
  3.454355658248E+01  3.495807926147E+01  3.537757621261E+01  3.580210712716E+01
  3.623173241269E+01  3.666651320164E+01  3.710651136006E+01  3.755178949638E+01
  3.800241097034E+01  3.845843990198E+01  3.891994118081E+01  3.938698047498E+01
  3.985962424068E+01  4.033793973156E+01  4.082199500834E+01  4.131185894844E+01
  4.180760125582E+01  4.230929247089E+01  4.281700398054E+01  4.333080802831E+01
  4.385077772465E+01  4.437698705735E+01
</grid-data>
</grid>
<valence-charge total-charge="15" is-unscreening-charge="yes"
 rescaled-to-z-pseudo="no">
<radfunc>
<data npts="458">
  1.007438165399E+01  1.007907391842E+01  1.009355078772E+01  1.011750826981E+01
  1.015080510160E+01  1.019456515649E+01  1.025030093653E+01  1.031407379034E+01
  1.038571633418E+01  1.046917809596E+01  1.056314394535E+01  1.066514576106E+01
  1.078823548306E+01  1.091657225513E+01  1.104455391035E+01  1.119169215039E+01
  1.136075651248E+01  1.152064366719E+01  1.169995635681E+01  1.190093214310E+01
  1.212603207126E+01  1.232528546581E+01  1.254319306383E+01  1.278135097463E+01
  1.304145844429E+01  1.332531647065E+01  1.363482390900E+01  1.388498065903E+01
  1.415155212276E+01  1.443542932600E+01  1.473752016533E+01  1.505874341687E+01
  1.540002128955E+01  1.576227029071E+01  1.614639014446E+01  1.655325047569E+01
  1.698367494363E+01  1.743842248210E+01  1.775543658717E+01  1.808373458135E+01
  1.842346309976E+01  1.877473863507E+01  1.913764293950E+01  1.951221800063E+01
  1.989846056966E+01  2.029631622236E+01  2.070567293580E+01  2.112635416785E+01
  2.155811143117E+01  2.200061635979E+01  2.245345227421E+01  2.291610526037E+01
  2.338795478966E+01  2.386826392083E+01  2.435616914102E+01  2.485066992237E+01
  2.535061809248E+01  2.585470714241E+01  2.636146162434E+01  2.686922682273E+01
  2.737615891825E+01  2.788021590166E+01  2.837914953645E+01  2.887049871179E+01
  2.935158457262E+01  2.981950785857E+01  3.027114892709E+01  3.048982919974E+01
  3.070317097746E+01  3.091072437203E+01  3.111202702712E+01  3.130660458238E+01
  3.149397121925E+01  3.167363029301E+01  3.184507505573E+01  3.200778947455E+01
  3.216124914957E+01  3.230492233556E+01  3.243827107096E+01  3.256075241800E+01
  3.267181981668E+01  3.277092455517E+01  3.285751735876E+01  3.293105009841E+01
  3.299097761968E+01  3.303675969158E+01  3.306786307424E+01  3.308376370325E+01
  3.308394898709E+01  3.306792021339E+01  3.303519505807E+01  3.298531019001E+01
  3.291782396280E+01  3.283231918312E+01  3.272840594407E+01  3.260572450973E+01
  3.246394823598E+01  3.230278651034E+01  3.212198769239E+01  3.192134203421E+01
  3.170068455872E+01  3.145989787231E+01  3.119891488643E+01  3.091772142152E+01
  3.061635866546E+01  3.029492545764E+01  2.995358036888E+01  2.959254354705E+01
  2.921209829799E+01  2.881259237123E+01  2.839443892105E+01  2.795811711359E+01
  2.750417235298E+01  2.703321610052E+01  2.654592526385E+01  2.604304113562E+01
  2.552536786473E+01  2.499377044699E+01  2.444917222640E+01  2.389255190348E+01
  2.332494005186E+01  2.274741515062E+01  2.216109914542E+01  2.156715255820E+01
  2.096676917145E+01  2.036117031956E+01  1.975159882647E+01  1.913931263510E+01
  1.852557817971E+01  1.791166355866E+01  1.729883156915E+01  1.668833267060E+01
  1.608139794631E+01  1.547923213545E+01  1.488300680929E+01  1.429385376507E+01
  1.371285871044E+01  1.314105530874E+01  1.257941965168E+01  1.202886522118E+01
  1.149023839578E+01  1.096431454981E+01  1.045179478487E+01  9.953303324464E+00
  9.469385592151E+00  9.000506983833E+00  8.547052334051E+00  8.109326065928E+00
  7.687553004401E+00  7.281879823055E+00  6.892377086429E+00  6.519041842372E+00
  6.161800713012E+00  5.820513428474E+00  5.494976744504E+00  5.184928683999E+00
  4.890053584700E+00  4.609989626532E+00  4.344338224250E+00  4.092668805054E+00
  3.854523516930E+00  3.629421937496E+00  3.416865689953E+00  3.216342930609E+00
  3.027332677062E+00  2.849308950499E+00  2.681744709754E+00  2.524115558402E+00
  2.375903209361E+00  2.236598872127E+00  2.105707023155E+00  1.982749119131E+00
  1.867265387448E+00  1.758816408685E+00  1.656984328212E+00  1.561373786959E+00
  1.471612541371E+00  1.387351775302E+00  1.308266102421E+00  1.234053259949E+00
  1.164432729468E+00  1.099141080640E+00  1.037925576509E+00  9.805442145539E-01
  9.267656287634E-01  8.763690032493E-01  8.291439462570E-01  7.848903286892E-01
  7.434180911409E-01  7.045470233109E-01  6.681065195061E-01  6.339353137915E-01
  6.018811981531E-01  5.718007268476E-01  5.435589099040E-01  5.170288985190E-01
  4.920916648623E-01  4.686356785706E-01  4.465565819785E-01  4.257568658982E-01
  4.061455475405E-01  3.876378519549E-01  3.701548981742E-01  3.536233910697E-01
  3.379753197683E-01  3.231476633455E-01  3.090821043928E-01  2.957247509579E-01
  2.830258672722E-01  2.709396136087E-01  2.594237955489E-01  2.484396228805E-01
  2.379514782964E-01  2.279266960122E-01  2.183353503729E-01  2.091500544701E-01
  2.003457687458E-01  1.918996195126E-01  1.837907272775E-01  1.760000447164E-01
  1.685102041099E-01  1.613053740156E-01  1.543711249256E-01  1.476943036307E-01
  1.412629159921E-01  1.350660178060E-01  1.290936134323E-01  1.233365618500E-01
  1.177864897964E-01  1.124357116455E-01  1.072771556780E-01  1.023042964028E-01
  9.751109259011E-02  9.289193068623E-02  8.844157328485E-02  8.415511234272E-02
  8.002792683512E-02  7.605564455955E-02  7.223410780741E-02  6.855934263654E-02
  6.502753149000E-02  6.163498892021E-02  5.837814019034E-02  5.525350253828E-02
  5.225766890144E-02  4.938729391295E-02  4.663908199190E-02  4.400977736154E-02
  4.149615583964E-02  3.909501825482E-02  3.680318535129E-02  3.461749405171E-02
  3.253479495461E-02  3.055195094741E-02  2.866583682856E-02  2.687333981176E-02
  2.517136082814E-02  2.355681651079E-02  2.202664176465E-02  2.057779282496E-02
  1.920725071019E-02  1.791202497909E-02  1.668915770541E-02  1.553572758780E-02
  1.444885411808E-02  1.342570173591E-02  1.246348390446E-02  1.155946704780E-02
  1.071097429799E-02  9.915389006460E-03  9.170157981916E-03  8.472794423886E-03
  7.820880528174E-03  7.212069747269E-03  6.644088695147E-03  6.114738691896E-03
  5.621896949079E-03  5.163517401630E-03  4.737631196441E-03  4.342346851497E-03
  3.975850102519E-03  3.636403456635E-03  3.322345474495E-03  3.032089803715E-03
  2.764123987374E-03  2.517008071784E-03  2.289373037742E-03  2.079919079133E-03
  1.887413752071E-03  1.710690016827E-03  1.548644193602E-03  1.400233851833E-03
  1.264475651246E-03  1.140443151241E-03  1.027264603592E-03  9.241207417520E-04
  8.302425784528E-04  7.449092216848E-04  6.674457176721E-04  5.972209280522E-04
  5.336454472069E-04  4.761695645537E-04  4.242812756085E-04  3.775043447717E-04
  3.353964220647E-04  2.975472154491E-04  2.635767198766E-04  2.331335038425E-04
  2.058930539208E-04  1.815561775417E-04  1.598474641085E-04  1.405138044283E-04
  1.233229683396E-04  1.080622403435E-04  9.453711297873E-05  8.257003761099E-05
  7.199923224009E-05  6.267754584360E-05  5.447137868914E-05  4.725965794648E-05
  4.093286782170E-05  3.539213331914E-05  3.054835661569E-05  2.632140490781E-05
  2.263934846899E-05  1.943774753595E-05  1.665898652864E-05  1.425165400507E-05
  1.216996665845E-05  1.037323558329E-05  8.825372970085E-06  7.494437335486E-06
  6.352215357541E-06  5.373838362812E-06  4.537431504381E-06  3.823793675887E-06
  3.216106226097E-06  2.699668570081E-06  2.261658835580E-06  1.890917735392E-06
  1.577753917280E-06  1.313769110515E-06  1.091701461566E-06  9.052855292217E-07
  7.491274903747E-07  6.185941906936E-07  5.097147583823E-07  4.190935832230E-07
  3.438335463337E-07  2.814684675049E-07  2.299038158320E-07  1.873648207392E-07
  1.523511046692E-07  1.235973395907E-07  1.000388686175E-07  8.078196665360E-08
  6.507822598596E-08  5.230245434156E-08  4.193366045018E-08  3.353875193840E-08
  2.675859621729E-08  2.129613338951E-08  1.690626607969E-08  1.338728357513E-08
  1.057360699919E-08  8.329668626424E-09  6.544762092425E-09  5.128721354615E-09
  4.008305027065E-09  3.124179338473E-09  2.428407638666E-09  1.882367290960E-09
  1.455026072636E-09  1.118019380899E-09  8.594054439415E-10  6.586990490120E-10
  5.033868370805E-10  3.835553618281E-10  2.913740920477E-10  2.206762278964E-10
  1.666198613590E-10  1.254149244270E-10  9.410383553166E-11  7.038583670942E-11
  5.247676480113E-11  3.899746718400E-11  2.888529773988E-11  2.132414827144E-11
  1.568931592039E-11  1.150420557453E-11  8.406441239463E-12  6.121432009233E-12
  4.441823766339E-12  3.211581666113E-12  2.313703163125E-12  1.660767225562E-12
  1.187691192633E-12  8.461997602086E-13  6.006169069588E-13  4.246762325679E-13
  2.991123269768E-13  2.098488402953E-13  1.466406719576E-13  1.020604224076E-13
  7.074479913087E-14  4.883653431265E-14  3.357275494404E-14  2.298260993715E-14
  1.566607000509E-14  1.063278392778E-14  7.185180917227E-15  4.834032090171E-15
  3.237721443818E-15  2.158759752935E-15  1.432783211676E-15  9.465513294709E-16
  6.224023903304E-16  4.073214841165E-16  2.652880301652E-16  1.719440887918E-16
  1.108972509532E-16  7.116928659912E-17  4.544402478393E-17  2.887001787593E-17
  1.824637936117E-17  1.147199400304E-17  7.174748164755E-18  4.463262841732E-18
  2.761521522355E-18  1.699285494376E-18  1.039866668489E-18  6.327810309402E-19
  3.828815860974E-19  2.303462459878E-19  1.377759660411E-19  8.192399712460E-20
  4.842431131972E-20  2.845111932903E-20  1.661450474900E-20  9.642635429982E-21
  5.561502831789E-21  3.187454485481E-21  1.815173464022E-21  1.027024800743E-21
  5.772962855539E-22  0.000000000000E+00  0.000000000000E+00  0.000000000000E+00
  0.000000000000E+00  0.000000000000E+00  0.000000000000E+00  0.000000000000E+00
  0.000000000000E+00  0.000000000000E+00  0.000000000000E+00  0.000000000000E+00
  0.000000000000E+00  0.000000000000E+00
</data>
</radfunc>
</valence-charge>
<pseudocore-charge matching-radius="0.444099195397"
 number-of-continuous-derivatives="4">
<annotation model-charge-form="Teter function with specified parameters" />
<radfunc>
<data npts="291">
  1.274834474563E+02  1.274667280747E+02  1.274151446755E+02  1.273297817429E+02
  1.272111446731E+02  1.270552320390E+02  1.268566591577E+02  1.266294627883E+02
  1.263742428483E+02  1.260769342460E+02  1.257422272603E+02  1.253789174146E+02
  1.249405230909E+02  1.244834675820E+02  1.240276993218E+02  1.235037324563E+02
  1.229017055348E+02  1.223323682857E+02  1.216938592991E+02  1.209781949249E+02
  1.201765828319E+02  1.194669547811E+02  1.186908036008E+02  1.178423899433E+02
  1.169155834107E+02  1.159038587498E+02  1.148002980670E+02  1.139079822646E+02
  1.129566941693E+02  1.119431101294E+02  1.108638076183E+02  1.097152774204E+02
  1.084939390131E+02  1.071961595804E+02  1.058182771279E+02  1.043566281942E+02
  1.028075806812E+02  1.011675723357E+02  1.000219908407E+02  9.883346367262E+01
  9.760104810549E+01  9.632384980794E+01  9.500103173537E+01  9.363182372617E+01
  9.221553281707E+01  9.075155428685E+01  8.923938343028E+01  8.767862805542E+01
  8.606902168726E+01  8.441043744864E+01  8.270290257554E+01  8.094661350793E+01
  7.914195147951E+01  7.728949850917E+01  7.539005367486E+01  7.344464952541E+01
  7.145456845891E+01  6.942135886678E+01  6.734685081157E+01  6.523317097312E+01
  6.308275656379E+01  6.089836787772E+01  5.868309910444E+01  5.644038700233E+01
  5.417401699488E+01  5.188812622381E+01  4.958720306810E+01  4.843260198386E+01
  4.727608262027E+01  4.611830204897E+01  4.495993760192E+01  4.380168630187E+01
  4.264426420180E+01  4.148840562961E+01  4.033486233481E+01  3.918440253375E+01
  3.803780985074E+01  3.689588215214E+01  3.575943027144E+01  3.462927662332E+01
  3.350625370547E+01  3.239120248719E+01  3.128497068468E+01  3.018841092328E+01
  2.910237878786E+01  2.802773076310E+01  2.696532206640E+01  2.591600437696E+01
  2.488062346538E+01  2.386001672935E+01  2.285501064188E+01  2.186641811955E+01
  2.089503581947E+01  1.994164137484E+01  1.900699058003E+01  1.809181453739E+01
  1.719681677917E+01  1.632267037919E+01  1.547001506996E+01  1.463945438226E+01
  1.383155282511E+01  1.304683312529E+01  1.228577354636E+01  1.154880530817E+01
  1.083631012836E+01  1.014861790819E+01  9.486004585260E+00  8.848690176100E+00
  8.236837031555E+00  7.650548327683E+00  7.089866814516E+00  6.554773844273E+00
  6.045188699630E+00  5.560968241311E+00  5.101906892700E+00  4.667736977127E+00
  4.258129421264E+00  3.872694835372E+00  3.510984978188E+00  3.172494610939E+00
  2.856663741330E+00  2.562880254473E+00  2.290482923534E+00  2.038764788483E+00
  1.806976886748E+00  1.594332314903E+00  1.400010595727E+00  1.223162320213E+00
  1.062914029467E+00  9.183732968922E-01  7.886339668262E-01  6.727815019135E-01
  5.698983880278E-01  4.790695426888E-01  3.993876706562E-01  3.299585088843E-01
  2.699059023407E-01  2.183766524238E-01  1.745450809236E-01  1.376172546966E-01
  1.068348195242E-01  8.147839598078E-02  6.087049556510E-02  4.437792178486E-02
  3.141362827810E-02  2.143801429963E-02  1.395964686979E-02  8.535408418039E-03
  4.770078667583E-03  2.315369585856E-03  8.684422334078E-04  1.699440279217E-04
  1.614036527528E-06  1.835121513784E-04  5.709351286941E-04  1.051088233042E-03
  1.539585404163E-03  1.976853265884E-03  2.324514783315E-03  2.561826858136E-03
  2.682242607296E-03  2.690163542642E-03  2.597939475812E-03  2.423164907503E-03
  2.186310189527E-03  1.908714206454E-03  1.610953104780E-03  1.311587140960E-03
  1.026275494661E-03  7.672373794324E-04  5.430274468840E-04  3.585847539737E-04
  2.155078182766E-04  1.125038128987E-04  4.595793823744E-05  1.056952064350E-05
  4.367580219621E-09  7.518161807859E-06  2.651288188089E-05  5.099695600286E-05
  7.592956048696E-05  9.743956795764E-05  1.129195111506E-04  1.210039455271E-04
  1.214492130517E-04  1.149373723250E-04  1.028306423559E-04  8.690394633772E-05
  6.908205510586E-05  5.120461754483E-05  3.483739785147E-05  2.114183086532E-05
  1.080817078855E-05  4.050706250578E-06  6.573919157451E-07  8.137236180029E-08
  1.558681085830E-06  4.235137698363E-06  7.286180286884E-06  1.001588049894E-05
  1.192531902259E-05  1.274531365814E-05  1.243356060461E-05  1.114092327759E-05
  9.155297571468E-06  6.833755009035E-06  4.534274919991E-06  2.557319892928E-06
  1.105020542424E-06  2.622573006863E-07  4.000136507576E-11  0.000000000000E+00
  0.000000000000E+00  0.000000000000E+00  0.000000000000E+00  0.000000000000E+00
  0.000000000000E+00  0.000000000000E+00  0.000000000000E+00  0.000000000000E+00
  0.000000000000E+00  0.000000000000E+00  0.000000000000E+00  0.000000000000E+00
  0.000000000000E+00  0.000000000000E+00  0.000000000000E+00  0.000000000000E+00
  0.000000000000E+00  0.000000000000E+00  0.000000000000E+00  0.000000000000E+00
  0.000000000000E+00  0.000000000000E+00  0.000000000000E+00  0.000000000000E+00
  0.000000000000E+00  0.000000000000E+00  0.000000000000E+00  0.000000000000E+00
  0.000000000000E+00  0.000000000000E+00  0.000000000000E+00  0.000000000000E+00
  0.000000000000E+00  0.000000000000E+00  0.000000000000E+00  0.000000000000E+00
  0.000000000000E+00  0.000000000000E+00  0.000000000000E+00  0.000000000000E+00
  0.000000000000E+00  0.000000000000E+00  0.000000000000E+00  0.000000000000E+00
  0.000000000000E+00  0.000000000000E+00  0.000000000000E+00  0.000000000000E+00
  0.000000000000E+00  0.000000000000E+00  0.000000000000E+00  0.000000000000E+00
  0.000000000000E+00  0.000000000000E+00  0.000000000000E+00  0.000000000000E+00
  0.000000000000E+00  0.000000000000E+00  0.000000000000E+00  0.000000000000E+00
  0.000000000000E+00  0.000000000000E+00  0.000000000000E+00  0.000000000000E+00
  0.000000000000E+00  0.000000000000E+00  0.000000000000E+00  0.000000000000E+00
  0.000000000000E+00  0.000000000000E+00  0.000000000000E+00  0.000000000000E+00
  0.000000000000E+00  0.000000000000E+00  0.000000000000E+00  0.000000000000E+00
  0.000000000000E+00  0.000000000000E+00  0.000000000000E+00
</data>
</radfunc>
</pseudocore-charge>
<semilocal-potentials set="scalar_relativistic">
<slps n="3" l="s" rc="1.41250404180" eref="-3.15601140914">
<radfunc>
<data npts="291">
 -1.850807734967E+01 -1.850833056835E+01 -1.850911162724E+01 -1.851040393118E+01
 -1.851219951647E+01 -1.851455847167E+01 -1.851756155626E+01 -1.852099570161E+01
 -1.852485109943E+01 -1.852933916222E+01 -1.853438771004E+01 -1.853986276956E+01
 -1.854646246183E+01 -1.855333497577E+01 -1.856017979327E+01 -1.856803840877E+01
 -1.857705383888E+01 -1.858556580456E+01 -1.859509556590E+01 -1.860575595997E+01
 -1.861766987433E+01 -1.862819264710E+01 -1.863967550603E+01 -1.865219532173E+01
 -1.866583274983E+01 -1.868067183413E+01 -1.869679942258E+01 -1.870979408980E+01
 -1.872360136015E+01 -1.873825906034E+01 -1.875380457444E+01 -1.877027436127E+01
 -1.878770337875E+01 -1.880612440231E+01 -1.882556722323E+01 -1.884605771142E+01
 -1.886761672607E+01 -1.889025885625E+01 -1.890595909965E+01 -1.892214376950E+01
 -1.893881057110E+01 -1.895595485531E+01 -1.897356933201E+01 -1.899164376007E+01
 -1.901016461257E+01 -1.902911471631E+01 -1.904847286453E+01 -1.906821340231E+01
 -1.908830578362E+01 -1.910871409990E+01 -1.912939657973E+01 -1.915030505984E+01
 -1.917138442768E+01 -1.919257203666E+01 -1.921379709508E+01 -1.923498003081E+01
 -1.925603183404E+01 -1.927685338124E+01 -1.929733474424E+01 -1.931735448922E+01
 -1.933677897102E+01 -1.935546162964E+01 -1.937324229638E+01 -1.938994651847E+01
 -1.940538491196E+01 -1.941935255402E+01 -1.943162842664E+01 -1.943705835776E+01
 -1.944197492519E+01 -1.944634576898E+01 -1.945013744595E+01 -1.945331542228E+01
 -1.945584406778E+01 -1.945768665227E+01 -1.945880534402E+01 -1.945916121036E+01
 -1.945871422081E+01 -1.945742325253E+01 -1.945524609852E+01 -1.945213947849E+01
 -1.944805905260E+01 -1.944295943822E+01 -1.943679422967E+01 -1.942951602124E+01
 -1.942107643336E+01 -1.941142614222E+01 -1.940051491268E+01 -1.938829163471E+01
 -1.937470436327E+01 -1.935970036170E+01 -1.934322614861E+01 -1.932522754828E+01
 -1.930564974440E+01 -1.928443733736E+01 -1.926153440460E+01 -1.923688456435E+01
 -1.921043104230E+01 -1.918211674114E+01 -1.915188431293E+01 -1.911967623380E+01
 -1.908543488109E+01 -1.904910261245E+01 -1.901062184673E+01 -1.896993514641E+01
 -1.892698530126E+01 -1.888171541297E+01 -1.883406898052E+01 -1.878398998598E+01
 -1.873142298051E+01 -1.867631317044E+01 -1.861860650319E+01 -1.855824975301E+01
 -1.849519060642E+01 -1.842937774748E+01 -1.836076094301E+01 -1.828929112802E+01
 -1.821492049172E+01 -1.813760256458E+01 -1.805729230728E+01 -1.797394620215E+01
 -1.788752234836E+01 -1.779798056191E+01 -1.770528248193E+01 -1.760939168498E+01
 -1.751027380922E+01 -1.740789669060E+01 -1.730223051359E+01 -1.719324797912E+01
 -1.708092449283E+01 -1.696523837702E+01 -1.684617111008E+01 -1.672370759770E+01
 -1.659783648030E+01 -1.646855048224E+01 -1.633584680819E+01 -1.619972759365E+01
 -1.606020041648E+01 -1.591727887806E+01 -1.577098326321E+01 -1.562134128948E+01
 -1.546838895789E+01 -1.531217151840E+01 -1.515274456565E+01 -1.499017528158E+01
 -1.482454384394E+01 -1.465594502088E+01 -1.448448997348E+01 -1.431030828871E+01
 -1.413355026546E+01 -1.395438947545E+01 -1.377302561807E+01 -1.358968768432E+01