<?xml version="1.0" encoding="UTF-8" ?>
<psml version="1.1" energy_unit="hartree" length_unit="bohr"
 uuid="124d3920-be63-11e7-41c0-f3027dc3db3e"
 xmlns="http://esl.cecam.org/PSML/ns/1.1">
<provenance creator="ONCVPSP-3.3.0+psml-3.3.0-73 (scalar-relativistic)"
 date="2017-10-31">
<annotation action="semilocal-pseudopotential-generation"
 action-cont="projectors-generation" />
<input-file name="oncvpsp-input">
<![CDATA[# atsym z nc nv iexc psfile
Mn 25 3 4 4 upf
# n l f
1 0 2.0
2 0 2.0
2 1 6.0
3 0 2.0
3 1 6.0
3 2 5.0
4 0 2.0
# lmax
2
# l rc ep ncon nbas qcut
0 1.1 0.0 4 7 11.0
1 1.1 0.0 4 7 10.8
2 1.35 0.0 4 7 11.4
# lloc lpopt rc5 dvloc0
4 5 1.1 0.0
# l nproj debl
0 2 1.0
1 2 1.0
2 2 1.0
# icmod fcfact
3 4 1.75
# epsh1 epsh2 depsh
-50.0 12.0 0.02
# rlmax drl
6.0 0.01
 0
]]>
</input-file>
</provenance>
<pseudo-atom-spec atomic-label="Mn" atomic-number="25" z-pseudo="15"
 flavor="Hamann&apos;s oncvpsp" relativity="scalar" spin-dft="no"
 core-corrections="yes">
<annotation pseudo-energy="-103.926975396" />
<exchange-correlation>
<annotation oncvpsp-xc-code="4" oncvpsp-xc-type="GGA -- Perdew-Burke-Ernzerhof" />
<libxc-info number-of-functionals="2">
<functional name="Perdew, Burke &amp; Ernzerhof (GGA)" type="exchange" id="101" />
<functional name="Perdew, Burke &amp; Ernzerhof (GGA)" type="correlation"
 id="130" />
</libxc-info>
</exchange-correlation>
<valence-configuration total-valence-charge="15">
<shell n="3" l="s" occupation="2" />
<shell n="3" l="p" occupation="6" />
<shell n="3" l="d" occupation="5" />
<shell n="4" l="s" occupation="2" />
</valence-configuration>
</pseudo-atom-spec>
<grid npts="458">
<annotation type="sampled from oncvpsp log grid"
 recipe="r(i:1..N) = r1*exp(a*(i-1)) + r=0; resampled"
 recipe-cont="r1: scale; a: step" scale="0.200000000000E-04"
 step="0.119285708653E-01" delta="0.500000000000E-02" rmax="44.3769870573" />
<grid-data>
  0.000000000000E+00  5.007342349535E-03  1.012179466165E-02  1.518430601833E-02
  2.021749050673E-02  2.536045174936E-02  3.069341316587E-02  3.584196802331E-02
  4.086744488362E-02  4.604501413403E-02  5.126337829839E-02  5.639639233938E-02
  6.204337627505E-02  6.744643678951E-02  7.245061657011E-02  7.782608083168E-02
  8.360037697896E-02  8.873823744356E-02  9.419185737129E-02  9.998064251273E-02
  1.061251912451E-01  1.113116283280E-01  1.167515314288E-01  1.224572876681E-01
  1.284418895367E-01  1.347189644807E-01  1.413028059321E-01  1.464509939291E-01
  1.517867496073E-01  1.573169067565E-01  1.630485481470E-01  1.689890146010E-01
  1.751459143940E-01  1.815271329993E-01  1.881408431876E-01  1.949955154940E-01
  2.020999290667E-01  2.094631829112E-01  2.145204619994E-01  2.196998440339E-01
  2.250042770683E-01  2.304367803338E-01  2.360004459582E-01  2.416984407254E-01
  2.475340078783E-01  2.535104689645E-01  2.596312257271E-01  2.658997620411E-01
  2.723196458958E-01  2.788945314263E-01  2.856281609931E-01  2.925243673121E-01
  2.995870756365E-01  3.068203059907E-01  3.142281754585E-01  3.218149005268E-01
  3.295847994851E-01  3.375422948838E-01  3.456919160515E-01  3.540383016727E-01
  3.625862024283E-01  3.713404836997E-01  3.803061283381E-01  3.894882395007E-01
  3.988920435552E-01  4.085228930548E-01  4.183862697847E-01  4.234069050222E-01
  4.284877878824E-01  4.336296413370E-01  4.388331970331E-01  4.440991953975E-01
  4.494283857422E-01  4.548215263711E-01  4.602793846876E-01  4.658027373038E-01
  4.713923701515E-01  4.770490785933E-01  4.827736675364E-01  4.885669515469E-01
  4.944297549654E-01  5.003629120250E-01  5.063672669693E-01  5.124436741729E-01
  5.185929982630E-01  5.248161142422E-01  5.311139076131E-01  5.374872745044E-01
  5.439371217985E-01  5.504643672601E-01  5.570699396672E-01  5.637547789432E-01
  5.705198362905E-01  5.773660743260E-01  5.842944672179E-01  5.913060008245E-01
  5.984016728344E-01  6.055824929084E-01  6.128494828233E-01  6.202036766172E-01
  6.276461207366E-01  6.351778741855E-01  6.428000086757E-01  6.505136087798E-01
  6.583197720852E-01  6.662196093502E-01  6.742142446624E-01  6.823048155983E-01
  6.904924733855E-01  6.987783830661E-01  7.071637236629E-01  7.156496883469E-01
  7.242374846070E-01  7.329283344223E-01  7.417234744354E-01  7.506241561286E-01
  7.596316460022E-01  7.687472257542E-01  7.779721924632E-01  7.873078587728E-01
  7.967555530781E-01  8.063166197150E-01  8.159924191516E-01  8.257843281814E-01
  8.356937401196E-01  8.457220650010E-01  8.558707297810E-01  8.661411785384E-01
  8.765348726809E-01  8.870532911530E-01  8.976979306469E-01  9.084703058146E-01
  9.193719494844E-01  9.304044128782E-01  9.415692658328E-01  9.528680970228E-01
  9.643025141870E-01  9.758741443573E-01  9.875846340896E-01  9.994356496986E-01
  1.011428877495E+00  1.023566024025E+00  1.035848816313E+00  1.048279002109E+00
  1.060858350134E+00  1.073588650336E+00  1.086471714140E+00  1.099509374710E+00
  1.112703487206E+00  1.126055929053E+00  1.139568600201E+00  1.153243423404E+00
  1.167082344485E+00  1.181087332618E+00  1.195260380610E+00  1.209603505177E+00
  1.224118747239E+00  1.238808172206E+00  1.253673870273E+00  1.268717956716E+00
  1.283942572196E+00  1.299349883063E+00  1.314942081660E+00  1.330721386639E+00
  1.346690043279E+00  1.362850323798E+00  1.379204527684E+00  1.395754982016E+00
  1.412504041800E+00  1.429454090302E+00  1.446607539386E+00  1.463966829858E+00
  1.481534431817E+00  1.499312844998E+00  1.517304599138E+00  1.535512254328E+00
  1.553938401380E+00  1.572585662197E+00  1.591456690143E+00  1.610554170425E+00
  1.629880820470E+00  1.649439390315E+00  1.669232662999E+00  1.689263454955E+00
  1.709534616415E+00  1.730049031812E+00  1.750809620193E+00  1.771819335636E+00
  1.793081167663E+00  1.814598141675E+00  1.836373319375E+00  1.858409799208E+00
  1.880710716798E+00  1.903279245400E+00  1.926118596345E+00  1.949232019501E+00
  1.972622803735E+00  1.996294277380E+00  2.020249808708E+00  2.044492806413E+00
  2.069026720090E+00  2.093855040731E+00  2.118981301219E+00  2.144409076834E+00
  2.170141985756E+00  2.196183689585E+00  2.222537893860E+00  2.249208348587E+00
  2.276198848770E+00  2.303513234955E+00  2.331155393774E+00  2.359129258500E+00
  2.387438809602E+00  2.416088075317E+00  2.445081132221E+00  2.474422105807E+00
  2.504115171077E+00  2.534164553130E+00  2.564574527767E+00  2.595349422101E+00
  2.626493615166E+00  2.658011538548E+00  2.689907677010E+00  2.722186569135E+00
  2.754852807964E+00  2.787911041660E+00  2.821365974160E+00  2.855222365850E+00
  2.889485034240E+00  2.924158854651E+00  2.959248760906E+00  2.994759746037E+00
  3.030696862990E+00  3.067065225346E+00  3.103870008050E+00  3.141116448146E+00
  3.178809845524E+00  3.216955563670E+00  3.255559030434E+00  3.294625738800E+00
  3.334161247665E+00  3.374171182637E+00  3.414661236829E+00  3.455637171671E+00
  3.497104817731E+00  3.539070075544E+00  3.581538916450E+00  3.624517383448E+00
  3.668011592049E+00  3.712027731154E+00  3.756572063927E+00  3.801650928694E+00
  3.847270739839E+00  3.893437988717E+00  3.940159244582E+00  3.987441155516E+00
  4.035290449383E+00  4.083713934775E+00  4.132718501993E+00  4.182311124016E+00
  4.232498857505E+00  4.283288843795E+00  4.334688309920E+00  4.386704569639E+00
  4.439345024475E+00  4.492617164769E+00  4.546528570746E+00  4.601086913595E+00
  4.656299956558E+00  4.712175556037E+00  4.768721662709E+00  4.825946322662E+00
  4.883857678534E+00  4.942463970676E+00  5.001773538324E+00  5.061794820784E+00
  5.122536358633E+00  5.184006794937E+00  5.246214876476E+00  5.309169454994E+00
  5.372879488454E+00  5.437354042315E+00  5.502602290823E+00  5.568633518313E+00
  5.635457120533E+00  5.703082605979E+00  5.771519597251E+00  5.840777832418E+00
  5.910867166407E+00  5.981797572404E+00  6.053579143273E+00  6.126222092992E+00
  6.199736758108E+00  6.274133599205E+00  6.349423202396E+00  6.425616280824E+00
  6.502723676194E+00  6.580756360309E+00  6.659725436632E+00  6.739642141872E+00
  6.820517847574E+00  6.902364061745E+00  6.985192430486E+00  7.069014739652E+00
  7.153842916528E+00  7.239689031526E+00  7.326565299904E+00  7.414484083503E+00
  7.503457892505E+00  7.593499387215E+00  7.684621379862E+00  7.776836836420E+00
  7.870158878457E+00  7.964600784999E+00  8.060175994419E+00  8.156898106352E+00
  8.254780883628E+00  8.353838254232E+00  8.454084313282E+00  8.555533325042E+00
  8.658199724942E+00  8.762098121642E+00  8.867243299101E+00  8.973650218691E+00
  9.081334021315E+00  9.190310029571E+00  9.300593749925E+00  9.412200874925E+00
  9.525147285424E+00  9.639449052849E+00  9.755122441483E+00  9.872183910781E+00
  9.990650117710E+00  1.011053791912E+01  1.023186437415E+01  1.035464674664E+01
  1.047890250760E+01  1.060464933769E+01  1.073190512975E+01  1.086068799130E+01
  1.099101624720E+01  1.112290844216E+01  1.125638334347E+01  1.139145994359E+01
  1.152815746291E+01  1.166649535247E+01  1.180649329670E+01  1.194817121626E+01
  1.209154927085E+01  1.223664786211E+01  1.238348763645E+01  1.253208948809E+01
  1.268247456194E+01  1.283466425669E+01  1.298868022777E+01  1.314454439050E+01
  1.330227892319E+01  1.346190627027E+01  1.362344914551E+01  1.378693053526E+01
  1.395237370168E+01  1.411980218610E+01  1.428923981233E+01  1.446071069008E+01
  1.463423921836E+01  1.480985008898E+01  1.498756829005E+01  1.516741910953E+01
  1.534942813884E+01  1.553362127651E+01  1.572002473183E+01  1.590866502861E+01
  1.609956900895E+01  1.629276383706E+01  1.648827700311E+01  1.668613632714E+01
  1.688636996307E+01  1.708900640263E+01  1.729407447946E+01  1.750160337321E+01
  1.771162261369E+01  1.792416208505E+01  1.813925203007E+01  1.835692305443E+01
  1.857720613109E+01  1.880013260466E+01  1.902573419592E+01  1.925404300627E+01
  1.948509152234E+01  1.971891262061E+01  1.995553957206E+01  2.019500604692E+01
  2.043734611949E+01  2.068259427292E+01  2.093078540419E+01  2.118195482905E+01
  2.143613828699E+01  2.169337194644E+01  2.195369240979E+01  2.221713671871E+01
  2.248374235934E+01  2.275354726765E+01  2.302658983486E+01  2.330290891288E+01
  2.358254381983E+01  2.386553434567E+01  2.415192075782E+01  2.444174380691E+01
  2.473504473260E+01  2.503186526939E+01  2.533224765262E+01  2.563623462445E+01
  2.594386943995E+01  2.625519587322E+01  2.657025822370E+01  2.688910132239E+01
  2.721177053826E+01  2.753831178472E+01  2.786877152613E+01  2.820319678445E+01
  2.854163514586E+01  2.888413476761E+01  2.923074438482E+01  2.958151331744E+01
  2.993649147725E+01  3.029572937497E+01  3.065927812747E+01  3.102718946500E+01
  3.139951573858E+01  3.177630992745E+01  3.215762564658E+01  3.254351715434E+01
  3.293403936019E+01  3.332924783251E+01  3.372919880650E+01  3.413394919218E+01
  3.454355658248E+01  3.495807926147E+01  3.537757621261E+01  3.580210712716E+01
  3.623173241269E+01  3.666651320164E+01  3.710651136006E+01  3.755178949638E+01
  3.800241097034E+01  3.845843990198E+01  3.891994118081E+01  3.938698047498E+01
  3.985962424068E+01  4.033793973156E+01  4.082199500834E+01  4.131185894844E+01
  4.180760125582E+01  4.230929247089E+01  4.281700398054E+01  4.333080802831E+01
  4.385077772465E+01  4.437698705735E+01
</grid-data>
</grid>
<valence-charge total-charge="15" is-unscreening-charge="yes"
 rescaled-to-z-pseudo="no">
<radfunc>
<data npts="458">
  1.676316707258E+00  1.681677693303E+00  1.698222473573E+00  1.725617659455E+00
  1.763724490576E+00  1.813862887916E+00  1.877815907733E+00  1.951118990543E+00
  2.033630494314E+00  2.129970884152E+00  2.238714361386E+00  2.357090079890E+00
  2.500398123860E+00  2.650347910222E+00  2.800422246800E+00  2.973622864327E+00
  3.173504453675E+00  3.363388634972E+00  3.577323445979E+00  3.818329126403E+00
  4.089791141987E+00  4.331420500936E+00  4.597099046015E+00  4.889161144531E+00
  5.210146330611E+00  5.562810044588E+00  5.950132362598E+00  6.265291309277E+00
  6.603186701342E+00  6.965330832274E+00  7.353305959835E+00  7.768760116913E+00
  8.213400715538E+00  8.688985447632E+00  9.197309906182E+00  9.740191264379E+00
  1.031944725964E+01  1.093686963719E+01  1.137054736297E+01  1.182245078431E+01
  1.229304487803E+01  1.278276179781E+01  1.329199292436E+01  1.382107996769E+01
  1.437030505914E+01  1.493987977519E+01  1.552993304256E+01  1.614049788351E+01
  1.677149697424E+01  1.742272700636E+01  1.809384186377E+01  1.878433465448E+01
  1.949351867010E+01  2.022050738535E+01  2.096419365650E+01  2.172322833123E+01
  2.249599854426E+01  2.328060604144E+01  2.407484595188E+01  2.487618650999E+01
  2.568175031811E+01  2.648829783188E+01  2.729221384451E+01  2.808949783688E+01
  2.887575914649E+01  2.964621798236E+01  3.039571337075E+01  3.076088649133E+01
  3.111871915045E+01  3.146846764295E+01  3.180936913779E+01  3.214064304138E+01
  3.246149254404E+01  3.277110635618E+01  3.306866063961E+01  3.335332113861E+01
  3.362424551440E+01  3.388058588494E+01  3.412149157113E+01  3.434611204851E+01
  3.455360010190E+01  3.474311517857E+01  3.491382693343E+01  3.506491895759E+01
  3.519559267906E+01  3.530507142221E+01  3.539260460983E+01  3.545747208891E+01
  3.549898855867E+01  3.551650807652E+01  3.550942861480E+01  3.547719663847E+01
  3.541931167126E+01  3.533533081507E+01  3.522487318524E+01  3.508762422193E+01
  3.492333983600E+01  3.473185034620E+01  3.451306416321E+01  3.426697117533E+01
  3.399364579022E+01  3.369324958746E+01  3.336603353736E+01  3.301233974303E+01
  3.263260266479E+01  3.222734978879E+01  3.179720170514E+01  3.134287156541E+01
  3.086516389387E+01  3.036497273276E+01  2.984327910825E+01  2.930114781031E+01
  2.873972348746E+01  2.816022606518E+01  2.756394550483E+01  2.695223592864E+01
  2.632650914466E+01  2.568822761421E+01  2.503889691256E+01  2.438005774166E+01
  2.371327756100E+01  2.304014190945E+01  2.236224549689E+01  2.168118314916E+01
  2.099854069370E+01  2.031588587581E+01  1.963475939648E+01  1.895666616261E+01
  1.828306683885E+01  1.761536978699E+01  1.695492347486E+01  1.630300943020E+01
  1.566083580892E+01  1.502953163835E+01  1.441014178775E+01  1.380362270852E+01
  1.321083897656E+01  1.263256065897E+01  1.206946151677E+01  1.152211804550E+01
  1.099100934526E+01  1.047651780309E+01  9.978930561647E+00  9.498441740855E+00
  9.035155372136E+00  8.589088999467E+00  8.160177896545E+00  7.748279845739E+00
  7.353180421736E+00  6.974600083660E+00  6.612207306874E+00  6.265635370152E+00
  5.934488890077E+00  5.618347830950E+00  5.316772910081E+00  5.029310430867E+00
  4.755496868630E+00  4.494863179957E+00  4.246938804520E+00  4.011255329709E+00
  3.787349789514E+00  3.574767570443E+00  3.373064899061E+00  3.181810888060E+00
  3.000589120959E+00  2.828998759430E+00  2.666654161118E+00  2.513180099319E+00
  2.368204556378E+00  2.231359886052E+00  2.102283749417E+00  1.980620023060E+00
  1.866019611796E+00  1.758141168861E+00  1.656651726844E+00  1.561227242853E+00
  1.471553061688E+00  1.387324300939E+00  1.308246162102E+00  1.234034171912E+00
  1.164414358194E+00  1.099123364559E+00  1.037908508323E+00  9.805277860029E-01
  9.267498307241E-01  8.763538258287E-01  8.291293788792E-01  7.848763601769E-01
  7.434047097914E-01  7.045342169668E-01  6.680942756214E-01  6.339236194923E-01
  6.018700402938E-01  5.717900920632E-01  5.435487846573E-01  5.170192691450E-01
  4.920825176075E-01  4.686269996297E-01  4.465483575275E-01  4.257490821243E-01
  4.061381906690E-01  3.876309082735E-01  3.701483540550E-01  3.536172329882E-01
  3.379695343210E-01  3.231422372653E-01  3.090770245628E-01  2.957200044235E-01
  2.830214412518E-01  2.709354955035E-01  2.594199729515E-01  2.484360835827E-01
  2.379482102960E-01  2.279236875194E-01  2.183325898162E-01  2.091475305015E-01
  2.003434702458E-01  1.918975355948E-01  1.837888472928E-01  1.759983582573E-01
  1.685087010140E-01  1.613040443695E-01  1.543699590682E-01  1.476932921564E-01
  1.412620497537E-01  1.350652879174E-01  1.290930112712E-01  1.233360790600E-01
  1.177861182890E-01  1.124354436017E-01  1.072769835496E-01  1.023042129136E-01
  9.751109073648E-02  9.289200373725E-02  8.844171478232E-02  8.415531610060E-02
  8.002818693861E-02  7.605595536369E-02  7.223446393529E-02  6.855973897704E-02
  6.502796319509E-02  6.163545140182E-02  5.837862911676E-02  5.525401383015E-02
  5.225819872730E-02  4.938783868437E-02  4.663963835820E-02  4.401034220415E-02
  4.149672626604E-02  3.909559159221E-02  3.680375913987E-02  3.461806603767E-02
  3.253536308291E-02  3.055251335425E-02  2.866639183367E-02  2.687388591054E-02
  2.517189668364E-02  2.355734094555E-02  2.202715375257E-02  2.057829148302E-02
  1.920773529023E-02  1.791249485969E-02  1.668961238367E-02  1.553616667141E-02
  1.444927731740E-02  1.342610885626E-02  1.246387483859E-02  1.155984176857E-02
  1.071133285129E-02  9.915731504387E-03  9.170484596201E-03  8.473105379619E-03
  7.821176097824E-03  7.212350244995E-03  6.644354471423E-03  6.114990128446E-03
  5.622134454113E-03  5.163741405399E-03  4.737842147093E-03  4.342545211229E-03
  3.976036344028E-03  3.636578059850E-03  3.322508923584E-03  3.032242584361E-03
  2.764266584298E-03  2.517140966523E-03  2.289496706646E-03  2.080033991586E-03
  1.887520368923E-03  1.710788789013E-03  1.548735560950E-03  1.400318242043E-03
  1.264553479023E-03  1.140514817585E-03  1.027330495219E-03  9.241812306501E-04
  8.302980215473E-04  7.449599606195E-04  6.674920786869E-04  5.972632219520E-04
  5.336839694135E-04  4.762045952328E-04  4.243130798637E-04  3.775331728991E-04
  3.354225098616E-04  2.975707845687E-04  2.635979782246E-04  2.331526460080E-04
  2.059102616369E-04  1.815716201700E-04  1.598612991427E-04  1.405261780120E-04
  1.233340157941E-04  1.080720867013E-04  9.454587351839E-05  8.257781839112E-05
  7.200613062810E-05  6.268365103674E-05  5.447677222528E-05  4.726441420237E-05
  4.093705449659E-05  3.539581190233E-05  3.055158283640E-05  2.632422916638E-05
  2.264181624855E-05  1.943989979390E-05  1.666086006760E-05  1.425328182305E-05
  1.217137827829E-05  1.037445736154E-05  8.826428385590E-06  7.495347258200E-06
  6.352998298049E-06  5.374510703255E-06  4.538007711494E-06  3.824286496933E-06
  3.216526868536E-06  2.700026865826E-06  2.261963390724E-06  1.891176066300E-06
  1.577972573923E-06  1.313953787930E-06  1.091857100305E-06  9.054164056116E-07
  7.492372974093E-07  6.186861103203E-07  5.097915259267E-07  4.191575446464E-07
  3.438867089845E-07  2.815125449783E-07  2.299402675171E-07  1.873948865879E-07
  1.523758356737E-07  1.236176244528E-07  1.000554569909E-07  8.079548935177E-08
  6.508921251375E-08  5.231134817662E-08  4.194083167593E-08  3.336313312295E-08
  2.662384375148E-08  2.119303655525E-08  1.682761959723E-08  1.332746715164E-08
  1.052824942327E-08  8.295380184153E-09  6.518922032337E-09  5.109309576506E-09
  3.993769192082E-09  3.113330264281E-09  2.420337212298E-09  1.876384248903E-09
  1.450605936372E-09  1.118266308210E-09  8.595977822414E-10  6.588484297600E-10
  5.035025126291E-10  3.836446702136E-10  2.914428356161E-10  2.207289807894E-10
  1.666602184502E-10  1.254457022264E-10  9.412723381258E-11  7.040356812197E-11
  5.249015847775E-11  3.900755128628E-11  2.889286501059E-11  2.132980791793E-11
  1.569353454151E-11  1.150733933552E-11  8.408761079593E-12  6.123143322674E-12
  4.443081714149E-12  3.212503047096E-12  2.314375583997E-12  1.661256159257E-12
  1.188045391255E-12  8.464553908531E-13  6.008006999287E-13  4.248078687701E-13
  2.992062414539E-13  2.099155794234E-13  1.466879107809E-13  1.020937242063E-13
  7.076818026908E-14  4.885288258782E-14  3.358413816837E-14  2.299050261144E-14
  1.567151913039E-14  1.063652978361E-14  7.187744661032E-15  4.835779017592E-15
  3.238906472507E-15  2.159559980377E-15  1.433321116094E-15  9.469112280337E-16
  6.226420607202E-16  4.074803327804E-16  2.653928064536E-16  1.720128633412E-16
  1.109421722753E-16  7.119848181966E-17  4.546290380794E-17  2.888216377489E-17
  1.825415319910E-17  1.147694360446E-17  7.177882943759E-18  4.465237619127E-18
  2.762758825304E-18  1.700056490973E-18  1.040344438487E-18  6.330754367887E-19
  3.830619733864E-19  2.304561384267E-19  1.378425243313E-19  8.196407260039E-20
  4.844829781273E-20  2.846538970257E-20  1.662294301171E-20  9.647594361028E-21
  5.564398896307E-21  3.189135149596E-21  1.816142574090E-21  1.027580002955E-21
  5.776122815369E-22  0.000000000000E+00  0.000000000000E+00  0.000000000000E+00
  0.000000000000E+00  0.000000000000E+00  0.000000000000E+00  0.000000000000E+00
  0.000000000000E+00  0.000000000000E+00  0.000000000000E+00  0.000000000000E+00
  0.000000000000E+00  0.000000000000E+00
</data>
</radfunc>
</valence-charge>
<pseudocore-charge matching-radius="0.438833197033"
 number-of-continuous-derivatives="4">
<annotation model-charge-form="Teter function with specified parameters" />
<radfunc>
<data npts="291">
  1.376116163672E+02  1.375931329661E+02  1.375361074790E+02  1.374417398385E+02
  1.373105904368E+02  1.371382383237E+02  1.369187347783E+02  1.366676002053E+02
  1.363855015551E+02  1.360568978901E+02  1.356869802212E+02  1.352854759308E+02
  1.348010286554E+02  1.342960008187E+02  1.337924371376E+02  1.332135747926E+02
  1.325485427945E+02  1.319196894880E+02  1.312145124312E+02  1.304242237183E+02
  1.295391511514E+02  1.287557513116E+02  1.278990336014E+02  1.269626978522E+02
  1.259400202271E+02  1.248238505884E+02  1.236066167770E+02  1.226225816653E+02
  1.215737057333E+02  1.204563644318E+02  1.192668305102E+02  1.180012882707E+02
  1.166558514247E+02  1.152265850353E+02  1.137095320611E+02  1.121007450482E+02
  1.103963235371E+02  1.085924577650E+02  1.073328146594E+02  1.060262992082E+02
  1.046719187553E+02  1.032687375898E+02  1.018158869215E+02  1.003125756268E+02
  9.875810177559E+01  9.715186494649E+01  9.549337932859E+01  9.378228759571E+01
  9.201837552941E+01  9.020158735191E+01  8.833204171431E+01  8.641004826729E+01
  8.443612472073E+01  8.241101427589E+01  8.033570328781E+01  7.821143898808E+01
  7.603974706704E+01  7.382244888240E+01  7.156167802571E+01  6.925989594233E+01
  6.691990626249E+01  6.454486746307E+01  6.213830344201E+01  5.970411155095E+01
  5.724656759803E+01  5.477032730380E+01  5.228042366953E+01  5.103202238953E+01
  4.978225970273E+01  4.853186675304E+01  4.728159593955E+01  4.603222020341E+01
  4.478453221266E+01  4.353934344098E+01  4.229748313718E+01  4.105979718208E+01
  3.982714683010E+01  3.860040733295E+01  3.738046644365E+01  3.616822279927E+01
  3.496458418154E+01  3.377046565511E+01  3.258678758380E+01  3.141447352606E+01
  3.025444801166E+01  2.910763420240E+01  2.797495144078E+01  2.685731269126E+01
  2.575562188024E+01  2.467077114146E+01  2.360363797523E+01  2.255508233062E+01
  2.152594362140E+01  2.051703768751E+01  1.952915371511E+01  1.856305112994E+01
  1.761945647947E+01  1.669906032100E+01  1.580251413398E+01  1.493042727594E+01
  1.408336400268E+01  1.326184057436E+01  1.246632246992E+01  1.169722173329E+01
  1.095489447536E+01  1.023963855615E+01  9.551691471812E+00  8.891228471476E+00
  8.258360928219E+00  7.653134988430E+00  7.075530522823E+00  6.525460401326E+00
  6.002770112691E+00  5.507237747866E+00  5.038574364092E+00  4.596424744174E+00
  4.180368562554E+00  3.789921966575E+00  3.424539577793E+00  3.083616914240E+00
  2.766493230381E+00  2.472454766938E+00  2.200738398072E+00  1.950535658433E+00
  1.720997127533E+00  1.511237143750E+00  1.320338815137E+00  1.147359289170E+00
  9.913352386953E-01  8.512885167639E-01  7.262319288314E-01  6.151750670882E-01
  5.171301485574E-01  4.311177961747E-01  3.561727004382E-01  2.913490984849E-01
  2.357260077015E-01  1.884121522762E-01  1.485505235126E-01  1.153225182749E-01
  8.795160464863E-02  6.570646974900E-02  4.790361156436E-02  3.390934469974E-02
  2.314119878572E-02  1.506869799960E-02  9.213520438903E-03  5.149046787974E-03
  2.499318598254E-03  9.374373053550E-04  1.834455597247E-04  1.742266779412E-06
  1.980916289767E-04  6.162941736207E-04  1.134593969487E-03  1.661900742642E-03
  2.133908194883E-03  2.509190353603E-03  2.765356144936E-03  2.895338556054E-03
  2.903888785420E-03  2.804337799330E-03  2.615677927600E-03  2.360005828710E-03
  2.060355696163E-03  1.738938388189E-03  1.415788716695E-03  1.107809935143E-03
  8.281920361246E-04  5.861693120832E-04  3.870732129037E-04  2.326292534800E-04
  1.214418957863E-04  4.960915547821E-05  1.140923664209E-05  4.714571072843E-09
  8.115456705420E-06  2.861924903178E-05  5.504850775050E-05  8.196193119300E-05
  1.051808427864E-04  1.218906199893E-04  1.306173378823E-04  1.310979805460E-04
  1.240687940453E-04  1.110002215113E-04  9.380819834136E-05  7.457041251055E-05
  5.527266736509E-05  3.760512226507E-05  2.282148448594E-05  1.166684680923E-05
  4.372522438742E-06  7.096196872418E-07  8.783714637760E-08  1.682513517651E-06
  4.571606399403E-06  7.865044964088E-06  1.081161148605E-05  1.287274904418E-05
  1.375788973863E-05  1.342136886113E-05  1.202603546298E-05  9.882657884382E-06
  7.376675885495E-06  4.894509155841E-06  2.760491115166E-06  1.192811035441E-06
  2.830928388873E-07  4.317935084774E-11  0.000000000000E+00  0.000000000000E+00
  0.000000000000E+00  0.000000000000E+00  0.000000000000E+00  0.000000000000E+00
  0.000000000000E+00  0.000000000000E+00  0.000000000000E+00  0.000000000000E+00
  0.000000000000E+00  0.000000000000E+00  0.000000000000E+00  0.000000000000E+00
  0.000000000000E+00  0.000000000000E+00  0.000000000000E+00  0.000000000000E+00
  0.000000000000E+00  0.000000000000E+00  0.000000000000E+00  0.000000000000E+00
  0.000000000000E+00  0.000000000000E+00  0.000000000000E+00  0.000000000000E+00
  0.000000000000E+00  0.000000000000E+00  0.000000000000E+00  0.000000000000E+00
  0.000000000000E+00  0.000000000000E+00  0.000000000000E+00  0.000000000000E+00
  0.000000000000E+00  0.000000000000E+00  0.000000000000E+00  0.000000000000E+00
  0.000000000000E+00  0.000000000000E+00  0.000000000000E+00  0.000000000000E+00
  0.000000000000E+00  0.000000000000E+00  0.000000000000E+00  0.000000000000E+00
  0.000000000000E+00  0.000000000000E+00  0.000000000000E+00  0.000000000000E+00
  0.000000000000E+00  0.000000000000E+00  0.000000000000E+00  0.000000000000E+00
  0.000000000000E+00  0.000000000000E+00  0.000000000000E+00  0.000000000000E+00
  0.000000000000E+00  0.000000000000E+00  0.000000000000E+00  0.000000000000E+00
  0.000000000000E+00  0.000000000000E+00  0.000000000000E+00  0.000000000000E+00
  0.000000000000E+00  0.000000000000E+00  0.000000000000E+00  0.000000000000E+00
  0.000000000000E+00  0.000000000000E+00  0.000000000000E+00  0.000000000000E+00
  0.000000000000E+00  0.000000000000E+00  0.000000000000E+00  0.000000000000E+00
  0.000000000000E+00  0.000000000000E+00  0.000000000000E+00
</data>
</radfunc>
</pseudocore-charge>
<semilocal-potentials set="scalar_relativistic">
<slps n="3" l="s" rc="1.11270348721" eref="-3.15601140914">
<radfunc>
<data npts="291">
  1.083422265259E+01  1.082021747345E+01  1.077705548897E+01  1.070577567136E+01
  1.060701343072E+01  1.047775177213E+01  1.031398999455E+01  1.012780536470E+01
  9.920146398046E+00  9.680208692535E+00  9.412589662838E+00  9.125056008349E+00
  8.782128307614E+00  8.429213173243E+00  8.081890102330E+00  7.688156628527E+00
  7.242949555557E+00  6.828822338273E+00  6.372171806888E+00  5.869880858469E+00
  5.318899915265E+00  4.841102497744E+00  4.328907950355E+00  3.781078969162E+00
  3.196556454921E+00  2.574503105604E+00  1.914349586540E+00  1.394065439343E+00
  8.522250342575E-01  2.889800302260E-01 -2.953805636906E-01 -9.004201569790E-01
 -1.525545246601E+00 -2.169997246437E+00 -2.832845734970E+00 -3.512983366807E+00
 -4.209122671026E+00 -4.919794925783E+00 -5.400843356929E+00 -5.887089278624E+00
 -6.377966034469E+00 -6.872873629853E+00 -7.371179843540E+00 -7.872221532401E+00
 -8.375306119243E+00 -8.879713250911E+00 -9.384696611266E+00 -9.889485871287E+00
 -1.039328875641E+01 -1.089529320958E+01 -1.139466962698E+01 -1.189057314294E+01
 -1.238214593958E+01 -1.286851955761E+01 -1.334881718496E+01 -1.382215590160E+01
 -1.428764886074E+01 -1.474440738919E+01 -1.519154299285E+01 -1.562816925699E+01
 -1.605340363518E+01 -1.646636912560E+01 -1.686619583848E+01 -1.725202246402E+01
 -1.762299765597E+01 -1.797828135190E+01 -1.831704605731E+01 -1.847997894772E+01
 -1.863847812629E+01 -1.879244426683E+01 -1.894177907696E+01 -1.908638534426E+01
 -1.922616698461E+01 -1.936102909335E+01 -1.949087799941E+01 -1.961562132314E+01
 -1.973516803786E+01 -1.984942853586E+01 -1.995831469898E+01 -2.006173997436E+01
 -2.015961945551E+01 -2.025186996931E+01 -2.033841016901E+01 -2.041916063370E+01
 -2.049404397464E+01 -2.056298494847E+01 -2.062591057784E+01 -2.068275027961E+01
 -2.073343600088E+01 -2.077790236313E+01 -2.081608681476E+01 -2.084792979223E+01
 -2.087337489016E+01 -2.089236904074E+01 -2.090486270262E+01 -2.091081005990E+01
 -2.091016923148E+01 -2.090290249124E+01 -2.088897649970E+01 -2.086836254753E+01
 -2.084103681167E+01 -2.080698062461E+01 -2.076618075754E+01 -2.071862971818E+01
 -2.066432606379E+01 -2.060327473047E+01 -2.053548737912E+01 -2.046098275925E+01
 -2.037978709100E+01 -2.029193446648E+01 -2.019746727104E+01 -2.009643662523E+01
 -1.998890284825E+01 -1.987493594380E+01 -1.975461610890E+01 -1.962803426692E+01
 -1.949529262544E+01 -1.935650526034E+01 -1.921179872703E+01 -1.906131270058E+01
 -1.890520064604E+01 -1.874363052105E+01 -1.857678551288E+01 -1.840486481230E+01
 -1.822808442734E+01 -1.804667804004E+01 -1.786089790979E+01 -1.767101582730E+01
 -1.747732412309E+01 -1.728013673488E+01 -1.707979033779E+01 -1.687664554066E+01
 -1.667108815097E+01 -1.646353050872E+01 -1.625441288721E+01 -1.604420495456E+01
 -1.583340728446E+01 -1.562255289726E+01 -1.541220880332E+01 -1.520297750811E+01
 -1.499549842385E+01 -1.479044911397E+01 -1.458854627510E+01 -1.439054633578E+01
 -1.419724552251E+01 -1.400947921144E+01 -1.382812035000E+01 -1.365407618530E+01
 -1.348828941403E+01 -1.332804944452E+01 -1.316944123405E+01 -1.301266588935E+01