<?xml version="1.0" encoding="UTF-8" ?>
<psml version="1.1" energy_unit="hartree" length_unit="bohr"
 uuid="13373f70-be6d-11e7-740d-53d9fffa81a8"
 xmlns="http://esl.cecam.org/PSML/ns/1.1">
<provenance creator="ONCVPSP-3.3.0+psml-3.3.0-73 (scalar-relativistic)"
 date="2017-10-31">
<annotation action="semilocal-pseudopotential-generation"
 action-cont="projectors-generation" />
<input-file name="oncvpsp-input">
<![CDATA[# atsym z nc nv iexc psfile
W 74 10 4 4 upf
# n l f
1 0 2.0
2 0 2.0
2 1 6.0
3 0 2.0
3 1 6.0
3 2 10.0
4 0 2.0
4 1 6.0
4 2 10.0
4 3 14.0
5 0 2.0
5 1 6.0
5 2 4.0
6 0 2.0
# lmax
3
# l rc ep ncon nbas qcut
0 1.6 0.0 4 8 7.4
1 1.6 0.0 4 8 8.0
2 1.6 0.0 4 9 7.4
3 2.0 0.15 4 8 5.5
# lloc lpopt rc5 dvloc0
4 5 1.25 0.0
# l nproj debl
0 2 1.0
1 2 1.0
2 2 1.0
3 2 2.8
# icmod fcfact rcfact
3 5.0 1.36
# epsh1 epsh2 depsh
-12.0 12.0 0.02
# rlmax drl
6.0 0.01
 0
]]>
</input-file>
</provenance>
<pseudo-atom-spec atomic-label="W" atomic-number="74" z-pseudo="14"
 flavor="Hamann&apos;s oncvpsp" relativity="scalar" spin-dft="no"
 core-corrections="yes">
<annotation pseudo-energy="-68.6046324347" />
<exchange-correlation>
<annotation oncvpsp-xc-code="4" oncvpsp-xc-type="GGA -- Perdew-Burke-Ernzerhof" />
<libxc-info number-of-functionals="2">
<functional name="Perdew, Burke &amp; Ernzerhof (GGA)" type="exchange" id="101" />
<functional name="Perdew, Burke &amp; Ernzerhof (GGA)" type="correlation"
 id="130" />
</libxc-info>
</exchange-correlation>
<valence-configuration total-valence-charge="14">
<shell n="5" l="s" occupation="2" />
<shell n="5" l="p" occupation="6" />
<shell n="5" l="d" occupation="4" />
<shell n="6" l="s" occupation="2" />
</valence-configuration>
</pseudo-atom-spec>
<grid npts="458">
<annotation type="sampled from oncvpsp log grid"
 recipe="r(i:1..N) = r1*exp(a*(i-1)) + r=0; resampled"
 recipe-cont="r1: scale; a: step" scale="0.675675675676E-05"
 step="0.119285708653E-01" delta="0.500000000000E-02" rmax="44.3907762595" />
<grid-data>
  0.000000000000E+00  5.008898274364E-03  1.012493979345E-02  1.518902421755E-02
  2.022377266067E-02  2.536833196880E-02  3.070295048932E-02  3.585310515037E-02
  4.088014357042E-02  4.605932164004E-02  5.127930729975E-02  5.641391631537E-02
  6.206265493084E-02  6.746739433111E-02  7.247312905385E-02  7.785026362628E-02
  8.362635401292E-02  8.876581095806E-02  9.422112548187E-02  1.000117093648E-01
  1.061581673846E-01  1.113462160423E-01  1.167878094769E-01  1.224953386582E-01
  1.284818001142E-01  1.347608255254E-01  1.413467127651E-01  1.464965004517E-01
  1.518339141021E-01  1.573657896297E-01  1.630992120055E-01  1.690415243328E-01
  1.752003372510E-01  1.815835386839E-01  1.881993039416E-01  1.950561061912E-01
  2.021627273089E-01  2.095282691274E-01  2.145871196573E-01  2.197681110743E-01
  2.250741923480E-01  2.305083836481E-01  2.360737780629E-01  2.417735433604E-01
  2.476109237913E-01  2.535892419353E-01  2.597119005926E-01  2.659823847205E-01
  2.724042634172E-01  2.789811919532E-01  2.857169138517E-01  2.926152630197E-01
  2.996801659301E-01  3.069156438563E-01  3.143258151616E-01  3.219148976428E-01
  3.296872109315E-01  3.376471789522E-01  3.457993324409E-01  3.541483115233E-01
  3.626988683567E-01  3.714558698343E-01  3.804243003556E-01  3.896092646634E-01
  3.990159907494E-01  4.086498328301E-01  4.185162743939E-01  4.235384696867E-01
  4.286209313229E-01  4.337643824988E-01  4.389695550888E-01  4.442371897498E-01
  4.495680360268E-01  4.549628524592E-01  4.604224066887E-01  4.659474755689E-01
  4.715388452758E-01  4.771973114191E-01  4.829236791561E-01  4.887187633060E-01
  4.945833884656E-01  5.005183891272E-01  5.065246097968E-01  5.126029051143E-01
  5.187541399757E-01  5.249791896554E-01  5.312789399313E-01  5.376542872104E-01
  5.441061386570E-01  5.506354123208E-01  5.572430372687E-01  5.639299537159E-01
  5.706971131605E-01  5.775454785184E-01  5.844760242607E-01  5.914897365518E-01
  5.985876133904E-01  6.057706647511E-01  6.130399127281E-01  6.203963916808E-01
  6.278411483810E-01  6.353752421616E-01  6.429997450675E-01  6.507157420083E-01
  6.585243309124E-01  6.664266228834E-01  6.744237423580E-01  6.825168272663E-01
  6.907070291935E-01  6.989955135438E-01  7.073834597063E-01  7.158720612228E-01
  7.244625259575E-01  7.331560762690E-01  7.419539491842E-01  7.508573965744E-01
  7.598676853333E-01  7.689860975573E-01  7.782139307280E-01  7.875524978967E-01
  7.970031278715E-01  8.065671654059E-01  8.162459713908E-01  8.260409230475E-01
  8.359534141241E-01  8.459848550936E-01  8.561366733547E-01  8.664103134349E-01
  8.768072371962E-01  8.873289240425E-01  8.979768711310E-01  9.087525935846E-01
  9.196576247076E-01  9.306935162041E-01  9.418618383985E-01  9.531641804593E-01
  9.646021506248E-01  9.761773764323E-01  9.878915049495E-01  9.997462030089E-01
  1.011743157445E+00  1.023884075334E+00  1.036170684238E+00  1.048604732449E+00
  1.061187989239E+00  1.073922245109E+00  1.086809312051E+00  1.099851023795E+00
  1.113049236081E+00  1.126405826914E+00  1.139922696837E+00  1.153601769199E+00
  1.167444990429E+00  1.181454330314E+00  1.195631782278E+00  1.209979363666E+00
  1.224499116030E+00  1.239193105422E+00  1.254063422687E+00  1.269112183759E+00
  1.284341529964E+00  1.299753628324E+00  1.315350671864E+00  1.331134879926E+00
  1.347108498485E+00  1.363273800467E+00  1.379633086073E+00  1.396188683106E+00
  1.412942947303E+00  1.429898262670E+00  1.447057041823E+00  1.464421726324E+00
  1.481994787040E+00  1.499778724485E+00  1.517776069179E+00  1.535989382009E+00
  1.554421254593E+00  1.573074309648E+00  1.591951201364E+00  1.611054615780E+00
  1.630387271169E+00  1.649951918424E+00  1.669751341445E+00  1.689788357542E+00
  1.710065817832E+00  1.730586607646E+00  1.751353646938E+00  1.772369890701E+00
  1.793638329390E+00  1.815161989343E+00  1.836943933215E+00  1.858987260413E+00
  1.881295107538E+00  1.903870648829E+00  1.926717096615E+00  1.949837701774E+00
  1.973235754195E+00  1.996914583246E+00  2.020877558245E+00  2.045128088943E+00
  2.069669626011E+00  2.094505661523E+00  2.119639729461E+00  2.145075406215E+00
  2.170816311089E+00  2.196866106822E+00  2.223228500104E+00  2.249907242105E+00
  2.276906129011E+00  2.304229002559E+00  2.331879750590E+00  2.359862307597E+00
  2.388180655288E+00  2.416838823151E+00  2.445840889029E+00  2.475190979697E+00
  2.504893271454E+00  2.534951990711E+00  2.565371414600E+00  2.596155871575E+00
  2.627309742034E+00  2.658837458938E+00  2.690743508446E+00  2.723032430547E+00
  2.755708819713E+00  2.788777325550E+00  2.822242653457E+00  2.856109565298E+00
  2.890382880082E+00  2.925067474643E+00  2.960168284338E+00  2.995690303750E+00
  3.031638587395E+00  3.068018250444E+00  3.104834469450E+00  3.142092483083E+00
  3.179797592880E+00  3.217955163994E+00  3.256570625962E+00  3.295649473474E+00
  3.335197267156E+00  3.375219634362E+00  3.415722269974E+00  3.456710937214E+00
  3.498191468460E+00  3.540169766082E+00  3.582651803275E+00  3.625643624914E+00
  3.669151348413E+00  3.713181164594E+00  3.757739338569E+00  3.802832210632E+00
  3.848466197159E+00  3.894647791525E+00  3.941383565024E+00  3.988680167804E+00
  4.036544329817E+00  4.084982861775E+00  4.134002656117E+00  4.183610687990E+00
  4.233814016246E+00  4.284619784441E+00  4.336035221854E+00  4.388067644516E+00
  4.440724456251E+00  4.494013149726E+00  4.547941307522E+00  4.602516603213E+00
  4.657746802451E+00  4.713639764081E+00  4.770203441249E+00  4.827445882544E+00
  4.885375233135E+00  4.943999735933E+00  5.003327732764E+00  5.063367665557E+00
  5.124128077544E+00  5.185617614474E+00  5.247845025848E+00  5.310819166158E+00
  5.374548996152E+00  5.439043584106E+00  5.504312107115E+00  5.570363852400E+00
  5.637208218629E+00  5.704854717253E+00  5.773312973860E+00  5.842592729546E+00
  5.912703842301E+00  5.983656288408E+00  6.055460163869E+00  6.128125685836E+00
  6.201663194066E+00  6.276083152394E+00  6.351396150223E+00  6.427612904026E+00
  6.504744258874E+00  6.582801189981E+00  6.661794804260E+00  6.741736341912E+00
  6.822637178014E+00  6.904508824151E+00  6.987362930040E+00  7.071211285201E+00
  7.156065820623E+00  7.241938610471E+00  7.328841873796E+00  7.416787976282E+00
  7.505789431997E+00  7.595858905181E+00  7.687009212044E+00  7.779253322588E+00
  7.872604362459E+00  7.967075614809E+00  8.062680522186E+00  8.159432688453E+00
  8.257345880714E+00  8.356434031283E+00  8.456711239658E+00  8.558191774534E+00
  8.660890075828E+00  8.764820756738E+00  8.869998605819E+00  8.976438589089E+00
  9.084155852158E+00  9.193165722384E+00  9.303483711053E+00  9.415125515585E+00
  9.528107021772E+00  9.642444306033E+00  9.758153637706E+00  9.875251481358E+00
  9.993754499135E+00  1.011367955312E+01  1.023504370776E+01  1.035786423225E+01
  1.048215860304E+01  1.060794450628E+01  1.073523984035E+01  1.086406271844E+01
  1.099443147106E+01  1.112636464871E+01  1.125988102450E+01  1.139499959679E+01
  1.153173959195E+01  1.167012046706E+01  1.181016191266E+01  1.195188385561E+01
  1.209530646188E+01  1.224045013942E+01  1.238733554109E+01  1.253598356759E+01
  1.268641537040E+01  1.283865235484E+01  1.299271618310E+01  1.314862877730E+01
  1.330641232263E+01  1.346608927050E+01  1.362768234174E+01  1.379121452985E+01
  1.395670910420E+01  1.412418961345E+01  1.429367988882E+01  1.446520404748E+01
  1.463878649605E+01  1.481445193400E+01  1.499222535721E+01  1.517213206150E+01
  1.535419764624E+01  1.553844801799E+01  1.572490939421E+01  1.591360830694E+01
  1.610457160662E+01  1.629782646590E+01  1.649340038349E+01  1.669132118809E+01
  1.689161704235E+01  1.709431644686E+01  1.729944824422E+01  1.750704162315E+01
  1.771712612263E+01  1.792973163610E+01  1.814488841573E+01  1.836262707672E+01
  1.858297860164E+01  1.880597434486E+01  1.903164603700E+01  1.926002578944E+01
  1.949114609892E+01  1.972503985211E+01  1.996174033033E+01  2.020128121429E+01
  2.044369658887E+01  2.068902094793E+01  2.093728919931E+01  2.118853666970E+01
  2.144279910974E+01  2.170011269905E+01  2.196051405144E+01  2.222404022006E+01
  2.249072870270E+01  2.276061744713E+01  2.303374485650E+01  2.331014979478E+01
  2.358987159231E+01  2.387295005142E+01  2.415942545204E+01  2.444933855746E+01
  2.474273062015E+01  2.503964338759E+01  2.534011910824E+01  2.564420053754E+01
  2.595193094399E+01  2.626335411532E+01  2.657851436471E+01  2.689745653708E+01
  2.722022601553E+01  2.754686872771E+01  2.787743115245E+01  2.821196032628E+01
  2.855050385019E+01  2.889310989639E+01  2.923982721515E+01  2.959070514173E+01
  2.994579360343E+01  3.030514312667E+01  3.066880484419E+01  3.103683050232E+01
  3.140927246835E+01  3.178618373797E+01  3.216761794283E+01  3.255362935814E+01
  3.294427291044E+01  3.333960418536E+01  3.373967943559E+01  3.414455558882E+01
  3.455429025588E+01  3.496894173895E+01  3.538856903982E+01  3.581323186830E+01
  3.624299065072E+01  3.667790653853E+01  3.711804141699E+01  3.756345791399E+01
  3.801421940896E+01  3.847039004187E+01  3.893203472237E+01  3.939921913904E+01
  3.987200976871E+01  4.035047388593E+01  4.083467957256E+01  4.132469572743E+01
  4.182059207616E+01  4.232243918108E+01  4.283030845125E+01  4.334427215266E+01
  4.386440341850E+01  4.439077625952E+01
</grid-data>
</grid>
<valence-charge total-charge="14" is-unscreening-charge="yes"
 rescaled-to-z-pseudo="no">
<radfunc>
<data npts="458">
  1.362454335730E+00  1.363057532874E+00  1.364919061972E+00  1.368001354624E+00
  1.372288712012E+00  1.377929524076E+00  1.385124254558E+00  1.393370535924E+00
  1.402652404506E+00  1.413489641058E+00  1.425721976917E+00  1.439038005590E+00
  1.455159412028E+00  1.472029504571E+00  1.488915870503E+00  1.508408133265E+00
  1.530909407164E+00  1.552292887879E+00  1.576395437547E+00  1.603563689920E+00
  1.634188548227E+00  1.661471563942E+00  1.691499075065E+00  1.724547581597E+00
  1.760921313677E+00  1.800954917813E+00  1.845016361747E+00  1.880947531704E+00
  1.919556166991E+00  1.961040824788E+00  2.005614349032E+00  2.053504765103E+00
  2.104956194292E+00  2.160229777955E+00  2.219604597878E+00  2.283378575201E+00
  2.351869325179E+00  2.425414938816E+00  2.477430120211E+00  2.531962898011E+00
  2.589129376885E+00  2.649050015380E+00  2.711849623304E+00  2.777657327268E+00
  2.846606498626E+00  2.918834637283E+00  2.994483204017E+00  3.073697393025E+00
  3.156625835450E+00  3.243420223518E+00  3.334234843820E+00  3.429226006995E+00
  3.528551359837E+00  3.632369064449E+00  3.740836827735E+00  3.854110763108E+00
  3.972344064910E+00  4.095685474759E+00  4.224277517793E+00  4.358254485778E+00
  4.497740143244E+00  4.642845132372E+00  4.793664052348E+00  4.950272189499E+00
  5.112721875820E+00  5.281038455703E+00  5.455215844001E+00  5.544490657714E+00
  5.635211663155E+00  5.727367024547E+00  5.820941953268E+00  5.915918519406E+00
  6.012275456990E+00  6.109987963092E+00  6.209027491074E+00  6.309361538322E+00
  6.410953428862E+00  6.513762091339E+00  6.617741832926E+00  6.722842109799E+00
  6.829007294932E+00  6.936176444053E+00  7.044283060702E+00  7.153254861472E+00
  7.263013542600E+00  7.373474549229E+00  7.484546848780E+00  7.596132710012E+00
  7.708127489494E+00  7.820419427355E+00  7.932889454332E+00  8.045411012284E+00
  8.157849890501E+00  8.270064080279E+00  8.381903650399E+00  8.493210646284E+00
  8.603819015755E+00  8.713554564459E+00  8.822234944130E+00  8.929669677011E+00
  9.035660219814E+00  9.140000070697E+00  9.242474922807E+00  9.342862867931E+00
  9.440934653836E+00  9.536453998828E+00  9.629177966972E+00  9.718857407347E+00
  9.805237460477E+00  9.888058134945E+00  9.967054956838E+00  1.004195969441E+01
  1.011250115992E+01  1.017840609007E+01  1.023940010611E+01  1.029520875380E+01
  1.034555862294E+01  1.039017854522E+01  1.042880086859E+01  1.046116280492E+01
  1.048700784722E+01  1.050608725137E+01  1.051816157598E+01  1.052300227339E+01
  1.052039332282E+01  1.051013289608E+01  1.049203504450E+01  1.046593139477E+01
  1.043167284002E+01  1.038913121112E+01  1.033820091239E+01  1.027880050469E+01
  1.021087421794E+01  1.013439337458E+01  1.004935770493E+01  9.955796535136E+00
  9.853769828285E+00  9.743369059814E+00  9.624717908702E+00  9.497972747013E+00
  9.363322911620E+00  9.220990743575E+00  9.071231382611E+00  8.914332306574E+00
  8.750612608242E+00  8.580422004925E+00  8.404139579392E+00  8.222172253992E+00
  8.034953003336E+00  7.842938814331E+00  7.646608405864E+00  7.446459723698E+00
  7.243007229294E+00  7.036779004073E+00  6.828313693110E+00  6.618157314291E+00
  6.406859960575E+00  6.194972424121E+00  5.983042771672E+00  5.771612900858E+00
  5.561215106930E+00  5.352368689282E+00  5.145576626592E+00  4.941322348493E+00
  4.740066630780E+00  4.542244640771E+00  4.348263159093E+00  4.158498004244E+00
  3.973291686653E+00  3.792951319678E+00  3.617746815861E+00  3.447909397712E+00
  3.283630453076E+00  3.125060765378E+00  2.972310148610E+00  2.825447515292E+00
  2.684501402692E+00  2.549460977929E+00  2.420277536128E+00  2.296866497465E+00
  2.179111179997E+00  2.066872064886E+00  1.959999043980E+00  1.858333347961E+00
  1.761708940487E+00  1.669954105568E+00  1.582892835783E+00  1.500346134644E+00
  1.422133219971E+00  1.348072629030E+00  1.277983226581E+00  1.211685117529E+00
  1.149000466503E+00  1.089754227230E+00  1.033774785056E+00  9.808945163218E-01
  9.309502686828E-01  8.837837666604E-01  8.392419469402E-01  7.971772280332E-01
  7.574477189916E-01  7.199173718777E-01  6.844560826485E-01  6.509397450346E-01
  6.192502618774E-01  5.892755182375E-01  5.609093204162E-01  5.340513048415E-01
  5.086068205654E-01  4.844867889149E-01  4.616075436410E-01  4.398906545511E-01
  4.192627378092E-01  3.996552552945E-01  3.810043056743E-01  3.632504094542E-01
  3.463382901142E-01  3.302166532480E-01  3.148379654487E-01  3.001582345029E-01
  2.861367922893E-01  2.727360816114E-01  2.599214480359E-01  2.476609376581E-01
  2.359251015717E-01  2.246868076823E-01  2.139210603813E-01  2.036048284743E-01
  1.937168816524E-01  1.842376356937E-01  1.751490064938E-01  1.664342729426E-01
  1.580779485950E-01  1.500656620175E-01  1.423840456420E-01  1.350206329101E-01
  1.279637634509E-01  1.212024960079E-01  1.147265287996E-01  1.085261269834E-01
  1.025920568766E-01  9.691552657792E-02  9.148813263256E-02  8.630181237752E-02
  8.134880161203E-02  7.662159724042E-02  7.211292454464E-02  6.781570875336E-02
  6.372305058662E-02  5.982820546742E-02  5.612456610499E-02  5.260564816742E-02
  4.926507877432E-02  4.609658755212E-02  4.309400000574E-02  4.025123297058E-02
  3.756229192204E-02  3.502126991060E-02  3.262234793015E-02  3.035979650383E-02
  2.822797829320E-02  2.622135154119E-02  2.433447416660E-02  2.256200833665E-02
  2.089872535363E-02  1.933951070198E-02  1.787936911444E-02  1.651342952837E-02
  1.523694981739E-02  1.404532119809E-02  1.293407222666E-02  1.189887231536E-02
  1.093553471420E-02  1.004001891774E-02  9.208432470882E-03  8.437032161018E-03
  7.722224595417E-03  7.060566173913E-03  6.448762476108E-03  5.883667090414E-03
  5.362279918807E-03  4.881744996418E-03  4.439347868934E-03  4.032512573497E-03
  3.658798270274E-03  3.315895572378E-03  3.001622621450E-03  2.713920954983E-03
  2.450851209667E-03  2.210588702610E-03  1.991418929518E-03  1.791733015744E-03
  1.610023152796E-03  1.444878049407E-03  1.294978422767E-03  1.159092552042E-03
  1.036071912953E-03  9.248469090577E-04  8.244227120270E-04  7.338752223921E-04
  6.523471520085E-04  5.790442517095E-04  5.132316515319E-04  4.542303601108E-04
  4.014138949430E-04  3.542050453052E-04  3.120727759065E-04  2.745292650357E-04
  2.411270747172E-04  2.114564508930E-04  1.851427509212E-04  1.618439956030E-04
  1.412485428810E-04  1.230728803252E-04  1.070595335003E-04  9.297508729432E-05
  8.060831726509E-05  6.976842802553E-05  6.028339564120E-05  5.199841095016E-05
  4.477442064106E-05  3.848676284272E-05  3.302389389062E-05  2.828620284829E-05
  2.418491027791E-05  2.064104767934E-05  1.758451395322E-05  1.495320519534E-05
  1.269221409823E-05  1.075309522315E-05  9.093192412980E-06  7.675024643611E-06
  6.465726658020E-06  5.436540793039E-06  4.562356491729E-06  3.821294093501E-06
  3.194329607355E-06  2.664957299073E-06  2.218887058773E-06  1.843773658819E-06
  1.528975161629E-06  1.265337890512E-06  1.045005532281E-06  8.612500965709E-07
  7.083226116795E-07  5.813215892763E-07  4.760774390460E-07  3.890511584105E-07
  3.172457609780E-07  2.581290396820E-07  2.095663861748E-07  1.697625065888E-07
  1.372109850356E-07  1.106507500961E-07  8.902859604828E-08  7.146699978719E-08
  5.723655647615E-08  4.573243216050E-08  3.645430015649E-08  2.898929031332E-08
  2.299753658469E-08  1.819995909973E-08  1.436796246760E-08  1.131477276368E-08
  8.888171903638E-09  6.964420282757E-09  5.443186999563E-09  4.243332036380E-09
  3.299406760791E-09  2.558758347750E-09  1.979140489129E-09  1.526747322338E-09
  1.174600118411E-09  9.012271482432E-10  6.895864992398E-10  5.261896302328E-10
  4.003902984486E-10  3.038093197050E-10  2.298705668624E-10  1.734277918165E-10
  1.304653791399E-10  9.785909835380E-11  7.318539871197E-11  5.456985687228E-11
  4.056710614361E-11  3.006599997994E-11  2.221493848739E-11  1.636325477663E-11
  1.201535212006E-11  8.794932089638E-12  6.417182780111E-12  4.667225664918E-12
  3.383467093174E-12  2.444780586611E-12  1.760671183331E-12  1.263753285709E-12
  9.040172387078E-13  6.444741517139E-13  4.578590049940E-13  3.241434981204E-13
  2.286665211905E-13  1.607328269934E-13  4.263835010417E-14  2.909871304085E-14
  1.977331409312E-14  1.337812057511E-14  9.011520872124E-15  6.043180086555E-15
  4.034356430135E-15  2.681024746960E-15  1.773460281888E-15  1.167648598871E-15
  7.651535244655E-16  4.990063857453E-16  3.238618540366E-16  2.091627950480E-16
  1.344170877146E-16  8.594964390997E-17  5.467981894844E-17  3.460803516781E-17
  2.179048544690E-17  1.364802200628E-17  8.502721922057E-18  5.268707235120E-18
  3.246982248667E-18  1.990018223148E-18  1.212848837670E-18  7.350207985608E-19
  4.429007369921E-19  2.653365868199E-19  1.580307539237E-19  9.356409850659E-20
  5.506416512574E-20  3.220992745818E-20  1.872576604343E-20  1.081898470668E-20
  6.211521729224E-21  3.543571710721E-21  2.008551103494E-21  1.131069549351E-21
  6.327416270385E-22  3.516087365328E-22  1.940680778300E-22  1.063835113997E-22
  5.791410853273E-23  3.130744582449E-23  1.680458452205E-23  0.000000000000E+00
  0.000000000000E+00  0.000000000000E+00  0.000000000000E+00  0.000000000000E+00
  0.000000000000E+00  0.000000000000E+00  0.000000000000E+00  0.000000000000E+00
  0.000000000000E+00  0.000000000000E+00
</data>
</radfunc>
</valence-charge>
<pseudocore-charge matching-radius="0.941861838399"
 number-of-continuous-derivatives="4">
<annotation model-charge-form="Teter function with specified parameters" />
<radfunc>
<data npts="291">
  5.229406909465E+01  5.229154276859E+01  5.228374719671E+01  5.227084257077E+01
  5.225289927078E+01  5.222930315761E+01  5.219922594886E+01  5.216477904820E+01
  5.212603965657E+01  5.208085329201E+01  5.202990744628E+01  5.197451705884E+01
  5.190755267617E+01  5.183758961547E+01  5.176767207490E+01  5.168710433876E+01
  5.159428357314E+01  5.150625501581E+01  5.140724246001E+01  5.129589935886E+01
  5.117072054781E+01  5.105949270433E+01  5.093738911941E+01  5.080337513109E+01
  5.065632368162E+01  5.049500835038E+01  5.031809614600E+01  5.017431061123E+01
  5.002028550901E+01  4.985532573590E+01  4.967869424426E+01  4.948961033792E+01
  4.928724804061E+01  4.907073456944E+01  4.883914895103E+01  4.859152082415E+01
  4.832682948008E+01  4.804400319939E+01  4.784482490900E+01  4.763674317250E+01
  4.741940254312E+01  4.719243765802E+01  4.695547342272E+01  4.670812526026E+01
  4.644999943230E+01  4.618069343967E+01  4.589979651060E+01  4.560689018552E+01
  4.530154900746E+01  4.498334132819E+01  4.465183024022E+01  4.430657464584E+01
  4.394713047434E+01  4.357305205956E+01  4.318389368984E+01  4.277921134310E+01
  4.235856461983E+01  4.192151888699E+01  4.146764764577E+01  4.099653513597E+01
  4.050777918943E+01  4.000099434414E+01  3.947581523009E+01  3.893190023631E+01
  3.836893546726E+01  3.778663899455E+01  3.718476540763E+01  3.687642167836E+01
  3.656311066386E+01  3.624481416693E+01  3.592151723505E+01  3.559320833692E+01
  3.525987954308E+01  3.492152671072E+01  3.457814967228E+01  3.422975242779E+01
  3.387634334065E+01  3.351793533653E+01  3.315454610526E+01  3.278619830520E+01
  3.241291976982E+01  3.203474371606E+01  3.165170895402E+01  3.126386009753E+01
  3.087124777500E+01  3.047392883998E+01  3.007196658094E+01  2.966543092940E+01
  2.925439866576E+01  2.883895362218E+01  2.841918688148E+01  2.799519697129E+01
  2.756709005250E+01  2.713498010099E+01  2.669898908165E+01  2.625924711343E+01
  2.581589262450E+01  2.536907249601E+01  2.491894219344E+01  2.446566588401E+01
  2.400941653888E+01  2.355037601862E+01  2.308873514063E+01  2.262469372673E+01
  2.215846062959E+01  2.169025373629E+01  2.122029994743E+01  2.074883513001E+01
  2.027610404269E+01  1.980236023142E+01  1.932786589403E+01  1.885289171203E+01
  1.837771664800E+01  1.790262770688E+01  1.742791965984E+01  1.695389472903E+01
  1.648086223190E+01  1.600913818383E+01  1.553904485776E+01  1.507091029994E+01
  1.460506780073E+01  1.414185531981E+01  1.368161486532E+01  1.322469182645E+01
  1.277143425967E+01  1.232219212852E+01  1.187731649765E+01  1.143715868183E+01
  1.100206935113E+01  1.057239759358E+01  1.014848993752E+01  9.730689335634E+00
  9.319334113483E+00  8.914756885781E+00  8.517283443895E+00  8.127231618756E+00
  7.744910123715E+00  7.370617382424E+00  7.004640347308E+00  6.647253314668E+00
  6.298716742964E+00  5.959276081272E+00  5.629160615378E+00  5.308582339381E+00
  4.997734861080E+00  4.696792349750E+00  4.405908535218E+00  4.125215767390E+00
  3.854824145533E+00  3.594820726714E+00  3.345268822816E+00  3.106207395430E+00
  2.877650557755E+00  2.659587192308E+00  2.451980692838E+00  2.254768838257E+00
  2.067863805751E+00  1.891152329370E+00  1.724496009465E+00  1.567731777223E+00
  1.420672517318E+00  1.283107850322E+00  1.154805075009E+00  1.035510269080E+00
  9.249495451146E-01  8.228304567084E-01  7.288435479225E-01  6.426640371896E-01
  5.639536248944E-01  4.923624118889E-01  4.275309142915E-01  3.690921580885E-01
  3.166738353265E-01  2.699005021145E-01  2.283957972674E-01  1.917846592714E-01
  1.596955183678E-01  1.317624399789E-01  1.076271954720E-01  8.694123640402E-02
  6.936754894193E-02  5.458236612743E-02  4.227671706579E-02  3.215779396799E-02
  2.395012025746E-02  1.739650565023E-02  1.225877719982E-02  8.318278724260E-03
  5.376134747712E-03  3.253279026551E-03  1.790251811047E-03  8.467741298947E-04
  3.011114782549E-04  4.924323585342E-05  3.857831617541E-06  9.319699575725E-05
  2.597752922974E-04  4.590034046211E-04  6.577452641029E-04  8.328399928413E-04
  9.696197203649E-04  1.060453598373E-03  1.103346770649E-03  1.100620679569E-03
  1.057697958775E-03  9.820113570770E-04  8.820517747547E-04  7.665657110502E-04
  6.439073850929E-04  5.215456842197E-04  4.057211072117E-04  3.012432018182E-04
  2.114148363145E-04  1.380661680288E-04  8.167852631596E-05  4.157672694115E-05
  1.616764975567E-05  3.203262955764E-06  4.763284281369E-08  3.929731162045E-06
  1.216690403082E-05  2.234751212783E-05  3.246526918587E-05  4.100194843701E-05
  4.695913869853E-05  4.984336502399E-05  4.961192012221E-05  4.658900083361E-05
  4.136308424758E-05  3.467685375865E-05  2.732041387270E-05  2.003710596465E-05
  1.344911637418E-05  8.007470677565E-06  3.968189621419E-06  1.393614776652E-06
  1.754576575475E-07  7.421185721199E-08  7.683622124938E-07  1.906419974269E-06
  3.155212829632E-06  4.238978890191E-06  4.965489648258E-06  5.237431851945E-06
  5.049350659684E-06  4.472331838461E-06  3.630045628409E-06  2.670617573723E-06
  1.738946081989E-06  9.535648584194E-07  3.910598545706E-07  7.958567017060E-08
  0.000000000000E+00  0.000000000000E+00  0.000000000000E+00  0.000000000000E+00
  0.000000000000E+00  0.000000000000E+00  0.000000000000E+00  0.000000000000E+00
  0.000000000000E+00  0.000000000000E+00  0.000000000000E+00  0.000000000000E+00
  0.000000000000E+00  0.000000000000E+00  0.000000000000E+00  0.000000000000E+00
  0.000000000000E+00  0.000000000000E+00  0.000000000000E+00  0.000000000000E+00
  0.000000000000E+00  0.000000000000E+00  0.000000000000E+00  0.000000000000E+00
  0.000000000000E+00  0.000000000000E+00  0.000000000000E+00  0.000000000000E+00
  0.000000000000E+00  0.000000000000E+00  0.000000000000E+00  0.000000000000E+00
  0.000000000000E+00  0.000000000000E+00  0.000000000000E+00  0.000000000000E+00
  0.000000000000E+00  0.000000000000E+00  0.000000000000E+00
</data>
</radfunc>
</pseudocore-charge>
<semilocal-potentials set="scalar_relativistic">
<slps n="5" l="s" rc="1.61105461578" eref="-2.90589158528">
<radfunc>
<data npts="291">
 -2.800565409409E+00 -2.802551724404E+00 -2.808678683494E+00 -2.818813605306E+00
 -2.832890204614E+00 -2.851373973293E+00 -2.874889478494E+00 -2.901759381884E+00
 -2.931898792942E+00 -2.966948998640E+00 -3.006331771508E+00 -3.048988848231E+00
 -3.100335952225E+00 -3.153722989106E+00 -3.206812305333E+00 -3.267664840056E+00
 -3.337345951333E+00 -3.403011697080E+00 -3.476389509559E+00 -3.558302402408E+00
 -3.649640028236E+00 -3.730136256270E+00 -3.817794425936E+00 -3.913159189866E+00
 -4.016798437400E+00 -4.129300489264E+00 -4.251270331548E+00 -4.349331706731E+00
 -4.453328173178E+00 -4.563522471619E+00 -4.680175454351E+00 -4.803543815659E+00
 -4.933877531883E+00 -5.071417001600E+00 -5.216389880510E+00 -5.369007610816E+00
 -5.529461650980E+00 -5.697919418823E+00 -5.814741085065E+00 -5.935215708931E+00
 -6.059369434338E+00 -6.187220645138E+00 -6.318779316024E+00 -6.454046355506E+00
 -6.593012944880E+00 -6.735659877464E+00 -6.881956902668E+00 -7.031862079819E+00
 -7.185321146849E+00 -7.342266909181E+00 -7.502618654263E+00 -7.666281597235E+00
 -7.833146363246E+00 -8.003088511743E+00 -8.175968107932E+00 -8.351629346257E+00
 -8.529900230387E+00 -8.710592313705E+00 -8.893500503736E+00 -9.078402933311E+00
 -9.265060900542E+00 -9.453218878969E+00 -9.642604598407E+00 -9.832929196272E+00
 -1.002388743839E+01 -1.021515800750E+01 -1.040640385714E+01 -1.050190798539E+01
 -1.059727262786E+01 -1.069245142494E+01 -1.078739712243E+01 -1.088206158931E+01
 -1.097639583639E+01 -1.107035003559E+01 -1.116387354008E+01 -1.125691490493E+01
 -1.134942190864E+01 -1.144134157512E+01 -1.153262019647E+01 -1.162320335626E+01
 -1.171303595349E+01 -1.180206222711E+01 -1.189022578115E+01 -1.197746961049E+01
 -1.206373612719E+01 -1.214896718750E+01 -1.223310411949E+01 -1.231608775141E+01
 -1.239785844070E+01 -1.247835610384E+01 -1.255752024697E+01 -1.263528999738E+01
 -1.271160413596E+01 -1.278640113062E+01 -1.285961917087E+01 -1.293119620346E+01
 -1.300106996935E+01 -1.306917804206E+01 -1.313545786738E+01 -1.319984680469E+01
 -1.326228216994E+01 -1.332270128035E+01 -1.338104150100E+01 -1.343724029330E+01
 -1.349123526564E+01 -1.354296422594E+01 -1.359236523660E+01 -1.363937667151E+01
 -1.368393727541E+01 -1.372598622548E+01 -1.376546319515E+01 -1.380230842007E+01
 -1.383646276623E+01 -1.386786779986E+01 -1.389646585918E+01 -1.392220012757E+01
 -1.394501470791E+01 -1.396485469765E+01 -1.398166626432E+01 -1.399539672076E+01
 -1.400599459958E+01 -1.401340972626E+01 -1.401759328995E+01 -1.401849791149E+01
 -1.401607770747E+01 -1.401028834972E+01 -1.400108711924E+01 -1.398843295369E+01
 -1.397228648758E+01 -1.395261008450E+01 -1.392936786061E+01 -1.390252569904E+01
 -1.387205125490E+01 -1.383791395091E+01 -1.380008496422E+01 -1.375853720512E+01
 -1.371324528916E+01 -1.366418550461E+01 -1.361133577818E+01 -1.355467564245E+01
 -1.349418620957E+01 -1.342985015706E+01 -1.336165173222E+01 -1.328957678361E+01
 -1.321361282901E+01 -1.313374917121E+01 -1.304997707457E+01 -1.296229001721E+01