<?xml version="1.0" encoding="UTF-8" ?>
<psml version="1.1" energy_unit="hartree" length_unit="bohr"
 uuid="775a8430-be63-11e7-6a89-20e3fb6e6634"
 xmlns="http://esl.cecam.org/PSML/ns/1.1">
<provenance creator="ONCVPSP-3.3.0+psml-3.3.0-73 (scalar-relativistic)"
 date="2017-10-31">
<annotation action="semilocal-pseudopotential-generation"
 action-cont="projectors-generation" />
<input-file name="oncvpsp-input">
<![CDATA[# atsym z nc nv iexc psfile
Br 35 5 3 4 upf
# n l f
1 0 2.0
2 0 2.0
2 1 6.0
3 0 2.0
3 1 6.0
3 2 10.0
4 0 2.0
4 1 5.0
# lmax
2
# l rc ep ncon nbas qcut
0 1.8 0.0 4 8 5.8
1 1.5 0.0 4 8 6.6
2 1.9 0.0 4 8 8.6
# lloc lpopt rc5 dvloc0
4 5 1.5 0.0
# l nproj debl
0 2 3.2
1 2 4.0
2 2 2.5
# icmod fcfact rcfact
3 3.5 1.5
# epsh1 epsh2 depsh
-12.0 12.0 0.02
# rlmax drl
6.0 0.01
 0
]]>
</input-file>
</provenance>
<pseudo-atom-spec atomic-label="Br" atomic-number="35" z-pseudo="17"
 flavor="Hamann&apos;s oncvpsp" relativity="scalar" spin-dft="no"
 core-corrections="yes">
<annotation pseudo-energy="-128.017568371" />
<exchange-correlation>
<annotation oncvpsp-xc-code="4" oncvpsp-xc-type="GGA -- Perdew-Burke-Ernzerhof" />
<libxc-info number-of-functionals="2">
<functional name="Perdew, Burke &amp; Ernzerhof (GGA)" type="exchange" id="101" />
<functional name="Perdew, Burke &amp; Ernzerhof (GGA)" type="correlation"
 id="130" />
</libxc-info>
</exchange-correlation>
<valence-configuration total-valence-charge="17">
<shell n="3" l="d" occupation="10" />
<shell n="4" l="s" occupation="2" />
<shell n="4" l="p" occupation="5" />
</valence-configuration>
</pseudo-atom-spec>
<grid npts="457">
<annotation type="sampled from oncvpsp log grid"
 recipe="r(i:1..N) = r1*exp(a*(i-1)) + r=0; resampled"
 recipe-cont="r1: scale; a: step" scale="0.142857142857E-04"
 step="0.119285708653E-01" delta="0.500000000000E-02" rmax="44.2674114500" />
<grid-data>
  0.000000000000E+00  5.054917964046E-03  1.009680193746E-02  1.514681294670E-02
  2.016756950152E-02  2.529783174994E-02  3.061762502401E-02  3.575346707549E-02
  4.076653503389E-02  4.593131983604E-02  5.113679882137E-02  5.625713842976E-02
  6.189017883894E-02  6.727989812235E-02  7.313898224683E-02  7.856551971204E-02
  8.439467843280E-02  8.958135458679E-02  9.508679028850E-02  1.009305756658E-01
  1.071335048047E-01  1.123692191118E-01  1.178608076606E-01  1.236207752640E-01
  1.296622378566E-01  1.359989523613E-01  1.426453480144E-01  1.478424498244E-01
  1.532289014281E-01  1.588116015445E-01  1.645977002384E-01  1.705946080783E-01
  1.768100056273E-01  1.832518532800E-01  1.899284014579E-01  1.968482011761E-01
  2.040201149951E-01  2.114533283713E-01  2.165586575315E-01  2.217872497590E-01
  2.271420811171E-01  2.326261995236E-01  2.382427264849E-01  2.439948588732E-01
  2.498858707458E-01  2.559191152091E-01  2.620980263267E-01  2.684261210743E-01
  2.749070013416E-01  2.815443559820E-01  2.883419629128E-01  2.953036912653E-01
  3.024335035873E-01  3.097354580979E-01  3.172137109982E-01  3.248725188365E-01
  3.327162409313E-01  3.407493418524E-01  3.489763939620E-01  3.574020800179E-01
  3.660311958378E-01  3.748686530301E-01  3.839194817889E-01  3.931888337572E-01
  4.026819849594E-01  4.124043388043E-01  4.223614291604E-01  4.274297663103E-01
  4.325589235060E-01  4.377496305881E-01  4.430026261552E-01  4.483186576690E-01
  4.536984815610E-01  4.591428633398E-01  4.646525776999E-01  4.702284086323E-01
  4.758711495358E-01  4.815816033303E-01  4.873605825702E-01  4.932089095611E-01
  4.991274164758E-01  5.051169454735E-01  5.111783488192E-01  5.173124890050E-01
  5.235202388731E-01  5.298024817396E-01  5.361601115204E-01  5.425940328587E-01
  5.491051612530E-01  5.556944231880E-01  5.623627562663E-01  5.691111093415E-01
  5.759404426536E-01  5.828517279654E-01  5.898459487010E-01  5.969241000854E-01
  6.040871892864E-01  6.113362355579E-01  6.186722703846E-01  6.260963376292E-01
  6.336094936807E-01  6.412128076049E-01  6.489073612962E-01  6.566942496317E-01
  6.645745806273E-01  6.725494755948E-01  6.806200693020E-01  6.887875101336E-01
  6.970529602552E-01  7.054175957783E-01  7.138826069276E-01  7.224491982107E-01
  7.311185885893E-01  7.398920116523E-01  7.487707157922E-01  7.577559643817E-01
  7.668490359542E-01  7.760512243857E-01  7.853638390783E-01  7.947882051473E-01
  8.043256636090E-01  8.139775715723E-01  8.237453024312E-01  8.336302460604E-01
  8.436338090131E-01  8.537574147213E-01  8.640025036979E-01  8.743705337423E-01
  8.848629801472E-01  8.954813359090E-01  9.062271119399E-01  9.171018372832E-01
  9.281070593305E-01  9.392443440425E-01  9.505152761710E-01  9.619214594851E-01
  9.734645169989E-01  9.851460912029E-01  9.969678442973E-01  1.008931458429E+00
  1.021038635930E+00  1.033291099561E+00  1.045690592756E+00  1.058238879869E+00
  1.070937746427E+00  1.083788999385E+00  1.096794467377E+00  1.109956000986E+00
  1.123275472998E+00  1.136754778673E+00  1.150395836018E+00  1.164200586050E+00
  1.178170993082E+00  1.192309044999E+00  1.206616753539E+00  1.221096154582E+00
  1.235749308437E+00  1.250578300138E+00  1.265585239740E+00  1.280772262617E+00
  1.296141529768E+00  1.311695228125E+00  1.327435570863E+00  1.343364797713E+00
  1.359485175286E+00  1.375798997389E+00  1.392308585358E+00  1.409016288382E+00
  1.425924483843E+00  1.443035577649E+00  1.460352004580E+00  1.477876228635E+00
  1.495610743379E+00  1.513558072300E+00  1.531720769167E+00  1.550101418397E+00
  1.568702635418E+00  1.587527067043E+00  1.606577391848E+00  1.625856320550E+00
  1.645366596396E+00  1.665110995553E+00  1.685092327500E+00  1.705313435430E+00
  1.725777196655E+00  1.746486523015E+00  1.767444361291E+00  1.788653693626E+00
  1.810117537950E+00  1.831838948405E+00  1.853821015786E+00  1.876066867976E+00
  1.898579670391E+00  1.921362626436E+00  1.944418977953E+00  1.967752005689E+00
  1.991365029757E+00  2.015261410114E+00  2.039444547035E+00  2.063917881600E+00
  2.088684896179E+00  2.113749114933E+00  2.139114104312E+00  2.164783473564E+00
  2.190760875247E+00  2.217050005750E+00  2.243654605819E+00  2.270578461089E+00
  2.297825402622E+00  2.325399307453E+00  2.353304099143E+00  2.381543748332E+00
  2.410122273312E+00  2.439043740592E+00  2.468312265479E+00  2.497932012665E+00
  2.527907196817E+00  2.558242083179E+00  2.588940988177E+00  2.620008280035E+00
  2.651448379395E+00  2.683265759948E+00  2.715464949067E+00  2.748050528456E+00
  2.781027134798E+00  2.814399460415E+00  2.848172253940E+00  2.882350320988E+00
  2.916938524839E+00  2.951941787138E+00  2.987365088583E+00  3.023213469646E+00
  3.059492031282E+00  3.096205935657E+00  3.133360406885E+00  3.170960731768E+00
  3.209012260549E+00  3.247520407676E+00  3.286490652568E+00  3.325928540399E+00
  3.365839682883E+00  3.406229759078E+00  3.447104516187E+00  3.488469770381E+00
  3.530331407626E+00  3.572695384517E+00  3.615567729131E+00  3.658954541881E+00
  3.702861996384E+00  3.747296340340E+00  3.792263896424E+00  3.837771063181E+00
  3.883824315940E+00  3.930430207731E+00  3.977595370224E+00  4.025326514666E+00
  4.073630432842E+00  4.122513998036E+00  4.171984166013E+00  4.222047976005E+00
  4.272712551717E+00  4.323985102338E+00  4.375872923566E+00  4.428383398648E+00
  4.481523999432E+00  4.535302287425E+00  4.589725914875E+00  4.644802625853E+00
  4.700540257363E+00  4.756946740452E+00  4.814030101337E+00  4.871798462553E+00
  4.930260044104E+00  4.989423164633E+00  5.049296242609E+00  5.109887797520E+00
  5.171206451090E+00  5.233260928503E+00  5.296060059645E+00  5.359612780361E+00
  5.423928133725E+00  5.489015271330E+00  5.554883454586E+00  5.621542056041E+00
  5.689000560713E+00  5.757268567442E+00  5.826355790251E+00  5.896272059734E+00
  5.967027324451E+00  6.038631652345E+00  6.111095232173E+00  6.184428374959E+00
  6.258641515458E+00  6.333745213644E+00  6.409750156208E+00  6.486667158082E+00
  6.564507163979E+00  6.643281249947E+00  6.723000624946E+00  6.803676632445E+00
  6.885320752035E+00  6.967944601059E+00  7.051559936272E+00  7.136178655507E+00
  7.221812799373E+00  7.308474552966E+00  7.396176247601E+00  7.484930362573E+00
  7.574749526923E+00  7.665646521247E+00  7.757634279501E+00  7.850725890855E+00
  7.944934601546E+00  8.040273816764E+00  8.136757102565E+00  8.234398187796E+00
  8.333210966050E+00  8.433209497642E+00  8.534408011614E+00  8.636820907753E+00
  8.740462758647E+00  8.845348311750E+00  8.951492491491E+00  9.058910401389E+00
  9.167617326206E+00  9.277628734120E+00  9.388960278930E+00  9.501627802277E+00
  9.615647335904E+00  9.731035103935E+00  9.847807525182E+00  9.965981215485E+00
  1.008557299007E+01  1.020659986595E+01  1.032907906434E+01  1.045302801311E+01
  1.057846434927E+01  1.070540592146E+01  1.083387079252E+01  1.096387724203E+01
  1.109544376894E+01  1.122858909416E+01  1.136333216329E+01  1.149969214925E+01
  1.163768845504E+01  1.177734071650E+01  1.191866880510E+01  1.206169283076E+01
  1.220643314473E+01  1.235291034247E+01  1.250114526658E+01  1.265115900978E+01
  1.280297291789E+01  1.295660859291E+01  1.311208789602E+01  1.326943295078E+01
  1.342866614619E+01  1.358981013994E+01  1.375288786162E+01  1.391792251596E+01
  1.408493758615E+01  1.425395683718E+01  1.442500431923E+01  1.459810437106E+01
  1.477328162351E+01  1.495056100300E+01  1.512996773503E+01  1.531152734785E+01
  1.549526567603E+01  1.568120886414E+01  1.586938337051E+01  1.605981597095E+01
  1.625253376261E+01  1.644756416776E+01  1.664493493777E+01  1.684467415702E+01
  1.704681024691E+01  1.725137196987E+01  1.745838843351E+01  1.766788909471E+01
  1.787990376385E+01  1.809446260901E+01  1.831159616032E+01  1.853133531425E+01
  1.875371133802E+01  1.897875587407E+01  1.920650094456E+01  1.943697895590E+01
  1.967022270337E+01  1.990626537581E+01  2.014514056032E+01  2.038688224704E+01
  2.063152483401E+01  2.087910313201E+01  2.112965236960E+01  2.138320819803E+01
  2.163980669641E+01  2.189948437677E+01  2.216227818929E+01  2.242822552756E+01
  2.269736423389E+01  2.296973260470E+01  2.324536939595E+01  2.352431382871E+01
  2.380660559465E+01  2.409228486179E+01  2.438139228013E+01  2.467396898749E+01
  2.497005661534E+01  2.526969729472E+01  2.557293366226E+01  2.587980886621E+01
  2.619036657260E+01  2.650465097147E+01  2.682270678313E+01  2.714457926453E+01
  2.747031421570E+01  2.779995798629E+01  2.813355748213E+01  2.847116017191E+01
  2.881281409397E+01  2.915856786310E+01  2.950847067746E+01  2.986257232559E+01
  3.022092319350E+01  3.058357427182E+01  3.095057716308E+01  3.132198408904E+01
  3.169784789810E+01  3.207822207288E+01  3.246316073776E+01  3.285271866661E+01
  3.324695129061E+01  3.364591470610E+01  3.404966568257E+01  3.445826167076E+01
  3.487176081081E+01  3.529022194054E+01  3.571370460383E+01  3.614226905907E+01
  3.657597628778E+01  3.701488800323E+01  3.745906665927E+01  3.790857545918E+01
  3.836347836469E+01  3.882384010507E+01  3.928972618633E+01  3.976120290057E+01
  4.023833733537E+01  4.072119738340E+01  4.120985175200E+01  4.170436997302E+01
  4.220482241270E+01  4.271128028165E+01  4.322381564503E+01  4.374250143277E+01
  4.426741144996E+01
</grid-data>
</grid>
<valence-charge total-charge="17" is-unscreening-charge="yes"
 rescaled-to-z-pseudo="no">
<radfunc>
<data npts="457">
  1.065246516351E-02  1.068154939360E-02  1.077563940598E-02  1.095644879137E-02
  1.125733141749E-02  1.174051199906E-02  1.250031108145E-02  1.356824781665E-02
  1.502094773640E-02  1.705118888895E-02  1.977257807002E-02  2.324965258082E-02
  2.817148453415E-02  3.414990863426E-02  4.229912468087E-02  5.161773090994E-02
  6.380252206968E-02  7.678275115767E-02  9.302882249197E-02  1.133653297968E-01
  1.388211578883E-01  1.637229518377E-01  1.935117038684E-01  2.291336945834E-01
  2.717113251999E-01  3.225732788062E-01  3.832889480609E-01  4.363928201285E-01
  4.969701781733E-01  5.660318861162E-01  6.447145749657E-01  7.342935891418E-01
  8.361965892694E-01  9.520176515589E-01  1.083531634310E+00  1.232708496076E+00
  1.401727145045E+00  1.592988272686E+00  1.734143300622E+00  1.887189071430E+00
  2.053013781262E+00  2.232554494301E+00  2.426797024302E+00  2.636775244574E+00
  2.863569720804E+00  3.108305549419E+00  3.372149272177E+00  3.656304725408E+00
  3.962007670253E+00  4.290519038502E+00  4.643116617855E+00  5.021084990962E+00
  5.425703535203E+00  5.858232285570E+00  6.319895462106E+00  6.811862467173E+00
  7.335226167636E+00  7.890978294107E+00  8.479981815302E+00  9.102940181872E+00
  9.760363382650E+00  1.045253081883E+01  1.117945108006E+01  1.194081880277E+01
  1.273596890646E+01  1.356382864019E+01  1.442286802965E+01  1.486346455954E+01
  1.531104949495E+01  1.576528057890E+01  1.622577761136E+01  1.669212097337E+01
  1.716385020634E+01  1.764046266010E+01  1.812141222437E+01  1.860610815930E+01
  1.909391404164E+01  1.958414684425E+01  2.007607616742E+01  2.056892364138E+01
  2.106186252035E+01  2.155401748891E+01  2.204446470249E+01  2.253223208378E+01
  2.301629989783E+01  2.349560162813E+01  2.396902517646E+01  2.443541440889E+01
  2.489357106967E+01  2.534225708428E+01  2.578019727162E+01  2.620608248412E+01
  2.661857319248E+01  2.701630353009E+01  2.739788580920E+01  2.776191551814E+01
  2.810697680549E+01  2.843164845302E+01  2.873451033514E+01  2.901415035739E+01
  2.926917186149E+01  2.949820147832E+01  2.969989740438E+01  2.987295806992E+01
  3.001613116051E+01  3.012822294591E+01  3.020810786242E+01  3.025473828716E+01
  3.026715443442E+01  3.024449429608E+01  3.018600354048E+01  3.009104527580E+01
  2.995910957699E+01  2.978982266838E+01  2.958295564781E+01  2.933843263295E+01
  2.905633820638E+01  2.873692403302E+01  2.838061452226E+01  2.798801140732E+01
  2.755989711667E+01  2.709723681679E+01  2.660117901180E+01  2.607305459477E+01
  2.551437425681E+01  2.492682417416E+01  2.431225991034E+01  2.367269848952E+01
  2.301030861940E+01  2.232739906606E+01  2.162640520961E+01  2.090987383830E+01
  2.018044626813E+01  1.944083990651E+01  1.869382841005E+01  1.794222061797E+01
  1.718883847394E+01  1.643649417834E+01  1.568796684033E+01  1.494597892357E+01
  1.421317279963E+01  1.349208773890E+01  1.278513767951E+01  1.209459011824E+01
  1.142254646536E+01  1.077092419498E+01  1.014144110481E+01  9.535601974020E+00
  8.954687874269E+00  8.399748348260E+00  7.871596622449E+00  7.370807966347E+00
  6.897721251754E+00  6.452443702138E+00  6.034858756943E+00  5.644636909576E+00
  5.281249312925E+00  4.943983884670E+00  4.631963588148E+00  4.344166515177E+00
  4.079447356813E+00  3.836559818080E+00  3.614179514578E+00  3.410926883503E+00
  3.225389649418E+00  3.056144406183E+00  2.901776910227E+00  2.760900725815E+00
  2.632173918607E+00  2.514313557657E+00  2.406107855716E+00  2.306425850625E+00
  2.214224604000E+00  2.128553964468E+00  2.048558523109E+00  1.973475383556E+00
  1.902628872823E+00  1.835426688930E+00  1.771356142831E+00  1.709978424137E+00
  1.650922576929E+00  1.593879019461E+00  1.538592922637E+00  1.484857655827E+00
  1.432508475988E+00  1.381416594982E+00  1.331483718718E+00  1.282637112568E+00
  1.234825212535E+00  1.188013890101E+00  1.142183697023E+00  1.097327778551E+00
  1.053449373129E+00  1.010559266396E+00  9.686733570666E-01  9.278090258932E-01
  8.879816463997E-01  8.492040736254E-01  8.114870538288E-01  7.748389724318E-01
  7.392658811043E-01  7.047715055537E-01  6.713572744216E-01  6.390223641450E-01
  6.077637577889E-01  5.775763162634E-01  5.484528602792E-01  5.203842614751E-01
  4.933595412303E-01  4.673659757532E-01  4.423892061182E-01  4.184133520138E-01
  3.954211280466E-01  3.733939615679E-01  3.523121109046E-01  3.321547834049E-01
  3.129002521943E-01  2.945259710886E-01  2.770086870011E-01  2.603245492843E-01
  2.444492155564E-01  2.293579535845E-01  2.150257389054E-01  2.014273479131E-01
  1.885374462027E-01  1.763306720142E-01  1.647817146729E-01  1.538653879619E-01
  1.435566984078E-01  1.338309084921E-01  1.246635948338E-01  1.160307014125E-01
  1.079085879272E-01  1.002740734031E-01  9.310447517330E-02  8.637764337924E-02
  8.007199114008E-02  7.416652055304E-02  6.864084469227E-02  6.347520578014E-02
  5.865048970944E-02  5.414823709879E-02  4.995065106687E-02  4.604060191382E-02
  4.240162889991E-02  3.901793931363E-02  3.587440502197E-02  3.295655669632E-02
  3.025057590698E-02  2.774328527846E-02  2.542213689560E-02  2.327519914812E-02
  2.129114219730E-02  1.945922224428E-02  1.776926477356E-02  1.621164693947E-02
  1.477727925571E-02  1.345758674068E-02  1.224448966245E-02  1.113038401826E-02
  1.010812187413E-02  9.170991680103E-03  8.312698666768E-03  7.527345418840E-03
  6.809412711150E-03  6.153740682829E-03  5.555510415579E-03  5.010225972611E-03
  4.513696945789E-03  4.062021549931E-03  3.651570295169E-03  3.278970260675E-03
  2.941089986157E-03  2.635024991115E-03  2.358083926151E-03  2.107775355489E-03
  1.881795165424E-03  1.678014589534E-03  1.494468838281E-03  1.329346317913E-03
  1.180978421506E-03  1.047829873321E-03  9.284896065140E-04  8.216621534619E-04
  7.261595275796E-04  6.408935753888E-04  5.648687777576E-04  4.971754795765E-04
  4.369835276365E-04  3.835362970935E-04  3.361450875867E-04  2.941838708137E-04
  2.570843721096E-04  2.243314693208E-04  1.954588929889E-04  1.700452125484E-04
  1.477100939016E-04  1.281108143423E-04  1.109390213747E-04  9.591772250290E-05
  8.279849356347E-05  7.135889363224E-05  6.140007497210E-05  5.274457689847E-05
  4.523429283183E-05  3.872860018547E-05  3.310264310688E-05  2.824575845368E-05
  2.406003574571E-05  2.045900219349E-05  1.736642426219E-05  1.471521759019E-05
  1.244645744219E-05  1.050848223918E-05  8.856083069684E-06  7.449772449034E-06
  6.255125953338E-06  5.242190712534E-06  4.384955099812E-06  3.660874302193E-06
  3.050446797335E-06  2.536837093619E-06  2.105540412862E-06  1.744085306664E-06
  1.441770497309E-06  1.189432521664E-06  9.792410308364E-07  8.045188590906E-07
  6.595842223031E-07  5.396126388396E-07  4.405163841539E-07  3.588394946882E-07
  2.916665269871E-07  2.365434546255E-07  1.914092489581E-07  1.545368402884E-07
  1.244822943389E-07  1.000411654431E-07  8.021110327216E-08  6.415989478494E-08
  5.119821807870E-08  4.075647057451E-08  3.236511113329E-08  2.563802490346E-08
  2.025848156839E-08  1.596731279192E-08  1.255298363012E-08  9.843276037899E-09
  7.698340870438E-09  6.004908453610E-09  4.671477333084E-09  3.624326636430E-09
  2.804219991662E-09  2.163688503580E-09  1.664797229716E-09  1.277314224914E-09
  9.772138138425E-10  7.454565535429E-10  5.669975880454E-10  4.299829751292E-10
  3.251002608932E-10  2.450552502181E-10  1.841517113691E-10  1.379547850819E-10
  1.030222514414E-10  7.669063693261E-11  5.690550213775E-11  4.208720955813E-11
  3.102509308314E-11  2.279428914816E-11  1.669059044048E-11  1.217958524767E-11
  8.857082471524E-12  6.418422150973E-12  4.634757846035E-12  3.334790442617E-12
  2.390749602746E-12  1.707673187438E-12  1.215238137910E-12  8.615581317682E-13
  6.084917624762E-13  4.281065336990E-13  3.000239399924E-13  2.094336597025E-13
  1.456139341914E-13  1.008333931887E-13  6.953919736072E-14  4.775923962924E-14
  3.266373951567E-14  2.224504244136E-14  1.508471839293E-14  1.018486637502E-14
  6.846441108667E-15  4.581870377617E-15  3.052571278189E-15  2.024465228869E-15
  1.336449169977E-15  8.781485992409E-16  5.742917176067E-16  3.737845000686E-16
  2.421079916391E-16  1.560524674568E-16  1.000875504042E-16  6.387210586733E-17
  4.055436336874E-17  2.561722421069E-17  1.609781578172E-17  1.006268503725E-17
  6.256675019344E-18  3.869234492012E-18  0.000000000000E+00  0.000000000000E+00
  0.000000000000E+00  0.000000000000E+00  0.000000000000E+00  0.000000000000E+00
  0.000000000000E+00  0.000000000000E+00  0.000000000000E+00  0.000000000000E+00
  0.000000000000E+00  0.000000000000E+00  0.000000000000E+00  0.000000000000E+00
  0.000000000000E+00  0.000000000000E+00  0.000000000000E+00  0.000000000000E+00
  0.000000000000E+00  0.000000000000E+00  0.000000000000E+00  0.000000000000E+00
  0.000000000000E+00  0.000000000000E+00  0.000000000000E+00  0.000000000000E+00
  0.000000000000E+00  0.000000000000E+00  0.000000000000E+00  0.000000000000E+00
  0.000000000000E+00  0.000000000000E+00  0.000000000000E+00  0.000000000000E+00
  0.000000000000E+00  0.000000000000E+00  0.000000000000E+00  0.000000000000E+00
  0.000000000000E+00  0.000000000000E+00  0.000000000000E+00  0.000000000000E+00
  0.000000000000E+00  0.000000000000E+00  0.000000000000E+00  0.000000000000E+00
  0.000000000000E+00
</data>
</radfunc>
</valence-charge>
<pseudocore-charge matching-radius="0.641212807605"
 number-of-continuous-derivatives="4">
<annotation model-charge-form="Teter function with specified parameters" />
<radfunc>
<data npts="290">
  1.051920559515E+02  1.051828764075E+02  1.051554368649E+02  1.051096622849E+02
  1.050460282301E+02  1.049623708488E+02  1.048557746569E+02  1.047337458722E+02
  1.045965797165E+02  1.044366786284E+02  1.042565154704E+02  1.040607779765E+02
  1.038243397910E+02  1.035775469584E+02  1.032866066252E+02  1.029962540625E+02
  1.026621675725E+02  1.023457490913E+02  1.019903370465E+02  1.015912817907E+02
  1.011434210661E+02  1.007461686316E+02  1.003108268686E+02  9.983392899332E+01
  9.931173154445E+01  9.874020067068E+01  9.811499972221E+01  9.760809281212E+01
  9.706630749629E+01  9.648746093995E+01  9.586926707833E+01  9.520933716318E+01
  9.450518142299E+01  9.375421204244E+01  9.295374769132E+01  9.210101985990E+01
  9.119318128517E+01  9.022731678061E+01  8.954970580147E+01  8.884409656074E+01
  8.810959417809E+01  8.734530174651E+01  8.655032359342E+01  8.572376892421E+01
  8.486475587417E+01  8.397241599499E+01  8.304589920161E+01  8.208437920508E+01
  8.108705945572E+01  8.005317961969E+01  7.898202260989E+01  7.787292218950E+01
  7.672527116267E+01  7.553853016294E+01  7.431223704410E+01  7.304601687190E+01
  7.173959250740E+01  7.039279576334E+01  6.900557910453E+01  6.757802785107E+01
  6.611037282925E+01  6.460300339923E+01  6.305648077132E+01  6.147155150282E+01
  5.984916104641E+01  5.819046719757E+01  5.649685326362E+01  5.563744834733E+01
  5.476994075048E+01  5.389457234490E+01  5.301160133536E+01  5.212130257602E+01
  5.122396786481E+01  5.031990621321E+01  4.940944408857E+01  4.849292562658E+01
  4.757071281061E+01  4.664318561529E+01  4.571074211112E+01  4.477379852696E+01
  4.383278926735E+01  4.288816688120E+01  4.194040197870E+01  4.098998309301E+01
  4.003741648345E+01  3.908322587671E+01  3.812795214294E+01  3.717215290316E+01
  3.621640206502E+01  3.526128928363E+01  3.430741934450E+01  3.335541146573E+01
  3.240589851679E+01  3.145952615143E+01  3.051695185260E+01  2.957884388742E+01
  2.864588017071E+01  2.771874703596E+01  2.679813791289E+01  2.588475191157E+01
  2.497929231318E+01  2.408246496832E+01  2.319497660448E+01  2.231753304457E+01
  2.145083733956E+01  2.059558781882E+01  1.975247606246E+01  1.892218480112E+01
  1.810538574924E+01  1.730273737900E+01  1.651488264277E+01  1.574244665332E+01
  1.498603433159E+01  1.424622803300E+01  1.352358516439E+01  1.281863580442E+01
  1.213188034131E+01  1.146378714282E+01  1.081479027412E+01  1.018528727988E+01
  9.575637047995E+00  8.986157772534E+00  8.417125034382E+00  7.868770018123E+00
  7.341277884135E+00  6.834786314790E+00  6.349384253583E+00  5.885110855609E+00
  5.441954667283E+00  5.019853052376E+00  4.618691880349E+00  4.238305491707E+00
  3.878476953430E+00  3.538938615706E+00  3.219372979028E+00  2.919413878265E+00
  2.638647987662E+00  2.376616647609E+00  2.132818011111E+00  1.906709504081E+00
  1.697710590275E+00  1.505205827776E+00  1.328548200079E+00  1.167062700930E+00
  1.020050148125E+00  8.867911976084E-01  7.665505254872E-01  6.585811420586E-01
  5.621287986971E-01  4.764364455853E-01  4.007486958421E-01  3.343162497049E-01
  2.764002311286E-01  2.262763885539E-01  1.832391117220E-01  1.466052173519E-01
  1.157174582647E-01  8.994771319335E-02  6.869981804515E-02  5.141200379159E-02
  3.755891141321E-02  2.665316036616E-02  1.824645379076E-02  1.193021104119E-02
  7.335725952200E-03  4.133857421329E-03  2.034267197164E-03  7.842280340974E-04
  1.670333930004E-04  4.741842265022E-08  1.324407858246E-04  4.426639702648E-04
  8.357143357782E-04  1.240256997048E-03  1.605661504792E-03  1.899016933068E-03
  2.102186824445E-03  2.208962652921E-03  2.222370026870E-03  2.152175867789E-03
  2.012637419929E-03  1.820525386430E-03  1.593444021319E-03  1.348460955026E-03
  1.101049254192E-03  8.643341003389E-04  6.486269118971E-04  4.612211171046E-04
  3.064164705046E-04  1.857331046749E-04  9.827266644103E-05  4.118206467182E-05
  1.017561934955E-05  7.370733420979E-08  5.320198009227E-06  2.044680435181E-05
  4.045958826014E-05  6.113082059587E-05  7.918771868681E-05  9.239775367050E-05
  9.955773148959E-05  1.004002419601E-04  9.543595484304E-05  8.575334307425E-05
  7.279858639361E-05  5.815765609250E-05  4.336005708923E-05  2.971970276120E-05
  1.822333672283E-05  9.471295874743E-06  3.669774527038E-06  6.686361258133E-07
  3.470304365170E-08  1.147703719061E-06  3.304890294250E-06  5.820806222299E-06
  8.110649597183E-06  9.748844802613E-06  1.049836930351E-05  1.031056769786E-05
  9.299085017983E-06  7.694677062607E-06  5.789630725407E-06  3.881138976766E-06
  2.222204725533E-06  9.866747630328E-07  2.521819090826E-07  1.573675087543E-09
  0.000000000000E+00  0.000000000000E+00  0.000000000000E+00  0.000000000000E+00
  0.000000000000E+00  0.000000000000E+00  0.000000000000E+00  0.000000000000E+00
  0.000000000000E+00  0.000000000000E+00  0.000000000000E+00  0.000000000000E+00
  0.000000000000E+00  0.000000000000E+00  0.000000000000E+00  0.000000000000E+00
  0.000000000000E+00  0.000000000000E+00  0.000000000000E+00  0.000000000000E+00
  0.000000000000E+00  0.000000000000E+00  0.000000000000E+00  0.000000000000E+00
  0.000000000000E+00  0.000000000000E+00  0.000000000000E+00  0.000000000000E+00
  0.000000000000E+00  0.000000000000E+00  0.000000000000E+00  0.000000000000E+00
  0.000000000000E+00  0.000000000000E+00  0.000000000000E+00  0.000000000000E+00
  0.000000000000E+00  0.000000000000E+00  0.000000000000E+00  0.000000000000E+00
  0.000000000000E+00  0.000000000000E+00  0.000000000000E+00  0.000000000000E+00
  0.000000000000E+00  0.000000000000E+00  0.000000000000E+00  0.000000000000E+00
  0.000000000000E+00  0.000000000000E+00  0.000000000000E+00  0.000000000000E+00
  0.000000000000E+00  0.000000000000E+00  0.000000000000E+00  0.000000000000E+00
  0.000000000000E+00  0.000000000000E+00  0.000000000000E+00  0.000000000000E+00
  0.000000000000E+00  0.000000000000E+00
</data>
</radfunc>
</pseudocore-charge>
<semilocal-potentials set="scalar_relativistic">
<slps n="4" l="s" rc="1.81011753795" eref="-0.739928039909">
<radfunc>
<data npts="290">
  4.078645872956E+01  4.075613397589E+01  4.066565030963E+01  4.051524890231E+01
  4.030728756213E+01  4.003585336211E+01  3.969318608342E+01  3.930523601543E+01
  3.887457884372E+01  3.837963391202E+01  3.783091213380E+01  3.724522242364E+01
  3.655186921964E+01  3.584411834184E+01  3.502997241231E+01  3.423846666374E+01
  3.335264439398E+01  3.253723300892E+01  3.164749314772E+01  3.067999155689E+01
  2.963186766081E+01  2.873386656985E+01  2.778222119168E+01  2.677669203184E+01
  2.571752682109E+01  2.460551100626E+01  2.344201121507E+01  2.253676828881E+01
  2.160473776243E+01  2.064719420840E+01  1.966561560944E+01  1.866167969227E+01
  1.763725707670E+01  1.659440118582E+01  1.553533495453E+01  1.446243447159E+01
  1.337820979042E+01  1.228528324120E+01  1.155316697271E+01  1.081920661334E+01
  1.008423108773E+01  9.349074839987E+00  8.614574300131E+00  7.881564370129E+00
  7.150874966148E+00  6.423327653104E+00  5.699732406089E+00  4.980884531307E+00
  4.267561776610E+00  3.560521658773E+00  2.860499031223E+00  2.168203912332E+00
  1.484319590420E+00  8.095010177721E-01  1.443735019610E-01 -5.104683009437E-01
 -1.154461090236E+00 -1.787073323648E+00 -2.407805324545E+00 -3.016189100546E+00
 -3.611787882842E+00 -4.194195397200E+00 -4.763034879233E+00 -5.317957848123E+00
 -5.858642654968E+00 -6.384792824372E+00 -6.896135211103E+00 -7.146174017401E+00
 -7.392417997564E+00 -7.634838657072E+00 -7.873408562585E+00 -8.108101270877E+00
 -8.338891257310E+00 -8.565753844226E+00 -8.788665129674E+00 -9.007601916883E+00
 -9.222541644962E+00 -9.433462321301E+00 -9.640342456207E+00 -9.843161000294E+00
 -1.004189728532E+01 -1.023653096899E+01 -1.042704198456E+01 -1.061341049595E+01
 -1.079561685929E+01 -1.097364159168E+01 -1.114746534847E+01 -1.131706890990E+01
 -1.148243317855E+01 -1.164353918872E+01 -1.180036812929E+01 -1.195290138135E+01
 -1.210112057203E+01 -1.224500764601E+01 -1.238454495586E+01 -1.251971537231E+01
 -1.265050241535E+01 -1.277689040648E+01 -1.289886464223E+01 -1.301641158819E+01
 -1.312951909258E+01 -1.323817661716E+01 -1.334237548301E+01 -1.344210912758E+01
 -1.353737336887E+01 -1.362816667197E+01 -1.371449041251E+01 -1.379634913143E+01
 -1.387375077535E+01 -1.394670691675E+01 -1.401523294900E+01 -1.407934825155E+01
 -1.413907632176E+01 -1.419444487081E+01 -1.424548588230E+01 -1.429223563342E+01
 -1.433473467947E+01 -1.437302780346E+01 -1.440716393323E+01 -1.443719602834E+01
 -1.446318093931E+01 -1.448517924058E+01 -1.450325503786E+01 -1.451747574904E+01
 -1.452791185577E+01 -1.453463662133E+01 -1.453772576784E+01 -1.453725710412E+01
 -1.453331009375E+01 -1.452596535091E+01 -1.451530405145E+01 -1.450140724586E+01
 -1.448435506233E+01 -1.446422579066E+01 -1.444109484228E+01 -1.441503358907E+01
 -1.438610809323E+01 -1.435437775577E+01 -1.431989392642E+01 -1.428269854198E+01
 -1.424282288191E+01 -1.420028655674E+01 -1.415509686722E+01 -1.410724868861E+01
 -1.405672503840E+01 -1.400349847045E+01 -1.394753339896E+01 -1.388878938692E+01
 -1.382722533691E+01 -1.376280439954E+01 -1.369549927645E+01 -1.362529745027E+01
 -1.355220573498E+01 -1.347625341535E+01 -1.339749314321E+01 -1.331599869646E+01