<?xml version="1.0" encoding="UTF-8" ?>
<psml version="1.1" energy_unit="hartree" length_unit="bohr"
 uuid="50806440-be42-11e7-6ac5-b0afbdff72c9"
 xmlns="http://esl.cecam.org/PSML/ns/1.1">
<provenance creator="ONCVPSP-3.3.0+psml-3.3.0-73 (scalar-relativistic)"
 date="2017-10-31">
<annotation action="semilocal-pseudopotential-generation"
 action-cont="projectors-generation" />
<input-file name="oncvpsp-input">
<![CDATA[# atsym z nc nv iexc psfile
Br 35 6 2 4 upf
# n l f
1 0 2.0
2 0 2.0
2 1 6.0
3 0 2.0
3 1 6.0
3 2 10.0
4 0 2.0
4 1 5.0
# lmax
2
# l rc ep ncon nbas qcut
0 1.8 0.0 4 9 5.9
1 1.5 0.0 4 8 7.4
2 1.9 0.1 4 9 7.4
# lloc lpopt rc5 dvloc0
4 5 1.5 0.0
# l nproj debl
0 2 3.2
1 2 4.0
2 2 2.5
# icmod fcfact
3 8.0 1.21
# epsh1 epsh2 depsh
-12.0 12.0 0.02
# rlmax drl
6.0 0.01
 0
]]>
</input-file>
</provenance>
<pseudo-atom-spec atomic-label="Br" atomic-number="35" z-pseudo="7"
 flavor="Hamann&apos;s oncvpsp" relativity="scalar" spin-dft="no"
 core-corrections="yes">
<annotation pseudo-energy="-13.4741204699" />
<exchange-correlation>
<annotation oncvpsp-xc-code="4" oncvpsp-xc-type="GGA -- Perdew-Burke-Ernzerhof" />
<libxc-info number-of-functionals="2">
<functional name="Perdew, Burke &amp; Ernzerhof (GGA)" type="exchange" id="101" />
<functional name="Perdew, Burke &amp; Ernzerhof (GGA)" type="correlation"
 id="130" />
</libxc-info>
</exchange-correlation>
<valence-configuration total-valence-charge="7">
<shell n="4" l="s" occupation="2" />
<shell n="4" l="p" occupation="5" />
</valence-configuration>
</pseudo-atom-spec>
<grid npts="457">
<annotation type="sampled from oncvpsp log grid"
 recipe="r(i:1..N) = r1*exp(a*(i-1)) + r=0; resampled"
 recipe-cont="r1: scale; a: step" scale="0.142857142857E-04"
 step="0.119285708653E-01" delta="0.500000000000E-02" rmax="44.2674114500" />
<grid-data>
  0.000000000000E+00  5.054917964046E-03  1.009680193746E-02  1.514681294670E-02
  2.016756950152E-02  2.529783174994E-02  3.061762502401E-02  3.575346707549E-02
  4.076653503389E-02  4.593131983604E-02  5.113679882137E-02  5.625713842976E-02
  6.189017883894E-02  6.727989812235E-02  7.313898224683E-02  7.856551971204E-02
  8.439467843280E-02  8.958135458679E-02  9.508679028850E-02  1.009305756658E-01
  1.071335048047E-01  1.123692191118E-01  1.178608076606E-01  1.236207752640E-01
  1.296622378566E-01  1.359989523613E-01  1.426453480144E-01  1.478424498244E-01
  1.532289014281E-01  1.588116015445E-01  1.645977002384E-01  1.705946080783E-01
  1.768100056273E-01  1.832518532800E-01  1.899284014579E-01  1.968482011761E-01
  2.040201149951E-01  2.114533283713E-01  2.165586575315E-01  2.217872497590E-01
  2.271420811171E-01  2.326261995236E-01  2.382427264849E-01  2.439948588732E-01
  2.498858707458E-01  2.559191152091E-01  2.620980263267E-01  2.684261210743E-01
  2.749070013416E-01  2.815443559820E-01  2.883419629128E-01  2.953036912653E-01
  3.024335035873E-01  3.097354580979E-01  3.172137109982E-01  3.248725188365E-01
  3.327162409313E-01  3.407493418524E-01  3.489763939620E-01  3.574020800179E-01
  3.660311958378E-01  3.748686530301E-01  3.839194817889E-01  3.931888337572E-01
  4.026819849594E-01  4.124043388043E-01  4.223614291604E-01  4.274297663103E-01
  4.325589235060E-01  4.377496305881E-01  4.430026261552E-01  4.483186576690E-01
  4.536984815610E-01  4.591428633398E-01  4.646525776999E-01  4.702284086323E-01
  4.758711495358E-01  4.815816033303E-01  4.873605825702E-01  4.932089095611E-01
  4.991274164758E-01  5.051169454735E-01  5.111783488192E-01  5.173124890050E-01
  5.235202388731E-01  5.298024817396E-01  5.361601115204E-01  5.425940328587E-01
  5.491051612530E-01  5.556944231880E-01  5.623627562663E-01  5.691111093415E-01
  5.759404426536E-01  5.828517279654E-01  5.898459487010E-01  5.969241000854E-01
  6.040871892864E-01  6.113362355579E-01  6.186722703846E-01  6.260963376292E-01
  6.336094936807E-01  6.412128076049E-01  6.489073612962E-01  6.566942496317E-01
  6.645745806273E-01  6.725494755948E-01  6.806200693020E-01  6.887875101336E-01
  6.970529602552E-01  7.054175957783E-01  7.138826069276E-01  7.224491982107E-01
  7.311185885893E-01  7.398920116523E-01  7.487707157922E-01  7.577559643817E-01
  7.668490359542E-01  7.760512243857E-01  7.853638390783E-01  7.947882051473E-01
  8.043256636090E-01  8.139775715723E-01  8.237453024312E-01  8.336302460604E-01
  8.436338090131E-01  8.537574147213E-01  8.640025036979E-01  8.743705337423E-01
  8.848629801472E-01  8.954813359090E-01  9.062271119399E-01  9.171018372832E-01
  9.281070593305E-01  9.392443440425E-01  9.505152761710E-01  9.619214594851E-01
  9.734645169989E-01  9.851460912029E-01  9.969678442973E-01  1.008931458429E+00
  1.021038635930E+00  1.033291099561E+00  1.045690592756E+00  1.058238879869E+00
  1.070937746427E+00  1.083788999385E+00  1.096794467377E+00  1.109956000986E+00
  1.123275472998E+00  1.136754778673E+00  1.150395836018E+00  1.164200586050E+00
  1.178170993082E+00  1.192309044999E+00  1.206616753539E+00  1.221096154582E+00
  1.235749308437E+00  1.250578300138E+00  1.265585239740E+00  1.280772262617E+00
  1.296141529768E+00  1.311695228125E+00  1.327435570863E+00  1.343364797713E+00
  1.359485175286E+00  1.375798997389E+00  1.392308585358E+00  1.409016288382E+00
  1.425924483843E+00  1.443035577649E+00  1.460352004580E+00  1.477876228635E+00
  1.495610743379E+00  1.513558072300E+00  1.531720769167E+00  1.550101418397E+00
  1.568702635418E+00  1.587527067043E+00  1.606577391848E+00  1.625856320550E+00
  1.645366596396E+00  1.665110995553E+00  1.685092327500E+00  1.705313435430E+00
  1.725777196655E+00  1.746486523015E+00  1.767444361291E+00  1.788653693626E+00
  1.810117537950E+00  1.831838948405E+00  1.853821015786E+00  1.876066867976E+00
  1.898579670391E+00  1.921362626436E+00  1.944418977953E+00  1.967752005689E+00
  1.991365029757E+00  2.015261410114E+00  2.039444547035E+00  2.063917881600E+00
  2.088684896179E+00  2.113749114933E+00  2.139114104312E+00  2.164783473564E+00
  2.190760875247E+00  2.217050005750E+00  2.243654605819E+00  2.270578461089E+00
  2.297825402622E+00  2.325399307453E+00  2.353304099143E+00  2.381543748332E+00
  2.410122273312E+00  2.439043740592E+00  2.468312265479E+00  2.497932012665E+00
  2.527907196817E+00  2.558242083179E+00  2.588940988177E+00  2.620008280035E+00
  2.651448379395E+00  2.683265759948E+00  2.715464949067E+00  2.748050528456E+00
  2.781027134798E+00  2.814399460415E+00  2.848172253940E+00  2.882350320988E+00
  2.916938524839E+00  2.951941787138E+00  2.987365088583E+00  3.023213469646E+00
  3.059492031282E+00  3.096205935657E+00  3.133360406885E+00  3.170960731768E+00
  3.209012260549E+00  3.247520407676E+00  3.286490652568E+00  3.325928540399E+00
  3.365839682883E+00  3.406229759078E+00  3.447104516187E+00  3.488469770381E+00
  3.530331407626E+00  3.572695384517E+00  3.615567729131E+00  3.658954541881E+00
  3.702861996384E+00  3.747296340340E+00  3.792263896424E+00  3.837771063181E+00
  3.883824315940E+00  3.930430207731E+00  3.977595370224E+00  4.025326514666E+00
  4.073630432842E+00  4.122513998036E+00  4.171984166013E+00  4.222047976005E+00
  4.272712551717E+00  4.323985102338E+00  4.375872923566E+00  4.428383398648E+00
  4.481523999432E+00  4.535302287425E+00  4.589725914875E+00  4.644802625853E+00
  4.700540257363E+00  4.756946740452E+00  4.814030101337E+00  4.871798462553E+00
  4.930260044104E+00  4.989423164633E+00  5.049296242609E+00  5.109887797520E+00
  5.171206451090E+00  5.233260928503E+00  5.296060059645E+00  5.359612780361E+00
  5.423928133725E+00  5.489015271330E+00  5.554883454586E+00  5.621542056041E+00
  5.689000560713E+00  5.757268567442E+00  5.826355790251E+00  5.896272059734E+00
  5.967027324451E+00  6.038631652345E+00  6.111095232173E+00  6.184428374959E+00
  6.258641515458E+00  6.333745213644E+00  6.409750156208E+00  6.486667158082E+00
  6.564507163979E+00  6.643281249947E+00  6.723000624946E+00  6.803676632445E+00
  6.885320752035E+00  6.967944601059E+00  7.051559936272E+00  7.136178655507E+00
  7.221812799373E+00  7.308474552966E+00  7.396176247601E+00  7.484930362573E+00
  7.574749526923E+00  7.665646521247E+00  7.757634279501E+00  7.850725890855E+00
  7.944934601546E+00  8.040273816764E+00  8.136757102565E+00  8.234398187796E+00
  8.333210966050E+00  8.433209497642E+00  8.534408011614E+00  8.636820907753E+00
  8.740462758647E+00  8.845348311750E+00  8.951492491491E+00  9.058910401389E+00
  9.167617326206E+00  9.277628734120E+00  9.388960278930E+00  9.501627802277E+00
  9.615647335904E+00  9.731035103935E+00  9.847807525182E+00  9.965981215485E+00
  1.008557299007E+01  1.020659986595E+01  1.032907906434E+01  1.045302801311E+01
  1.057846434927E+01  1.070540592146E+01  1.083387079252E+01  1.096387724203E+01
  1.109544376894E+01  1.122858909416E+01  1.136333216329E+01  1.149969214925E+01
  1.163768845504E+01  1.177734071650E+01  1.191866880510E+01  1.206169283076E+01
  1.220643314473E+01  1.235291034247E+01  1.250114526658E+01  1.265115900978E+01
  1.280297291789E+01  1.295660859291E+01  1.311208789602E+01  1.326943295078E+01
  1.342866614619E+01  1.358981013994E+01  1.375288786162E+01  1.391792251596E+01
  1.408493758615E+01  1.425395683718E+01  1.442500431923E+01  1.459810437106E+01
  1.477328162351E+01  1.495056100300E+01  1.512996773503E+01  1.531152734785E+01
  1.549526567603E+01  1.568120886414E+01  1.586938337051E+01  1.605981597095E+01
  1.625253376261E+01  1.644756416776E+01  1.664493493777E+01  1.684467415702E+01
  1.704681024691E+01  1.725137196987E+01  1.745838843351E+01  1.766788909471E+01
  1.787990376385E+01  1.809446260901E+01  1.831159616032E+01  1.853133531425E+01
  1.875371133802E+01  1.897875587407E+01  1.920650094456E+01  1.943697895590E+01
  1.967022270337E+01  1.990626537581E+01  2.014514056032E+01  2.038688224704E+01
  2.063152483401E+01  2.087910313201E+01  2.112965236960E+01  2.138320819803E+01
  2.163980669641E+01  2.189948437677E+01  2.216227818929E+01  2.242822552756E+01
  2.269736423389E+01  2.296973260470E+01  2.324536939595E+01  2.352431382871E+01
  2.380660559465E+01  2.409228486179E+01  2.438139228013E+01  2.467396898749E+01
  2.497005661534E+01  2.526969729472E+01  2.557293366226E+01  2.587980886621E+01
  2.619036657260E+01  2.650465097147E+01  2.682270678313E+01  2.714457926453E+01
  2.747031421570E+01  2.779995798629E+01  2.813355748213E+01  2.847116017191E+01
  2.881281409397E+01  2.915856786310E+01  2.950847067746E+01  2.986257232559E+01
  3.022092319350E+01  3.058357427182E+01  3.095057716308E+01  3.132198408904E+01
  3.169784789810E+01  3.207822207288E+01  3.246316073776E+01  3.285271866661E+01
  3.324695129061E+01  3.364591470610E+01  3.404966568257E+01  3.445826167076E+01
  3.487176081081E+01  3.529022194054E+01  3.571370460383E+01  3.614226905907E+01
  3.657597628778E+01  3.701488800323E+01  3.745906665927E+01  3.790857545918E+01
  3.836347836469E+01  3.882384010507E+01  3.928972618633E+01  3.976120290057E+01
  4.023833733537E+01  4.072119738340E+01  4.120985175200E+01  4.170436997302E+01
  4.220482241270E+01  4.271128028165E+01  4.322381564503E+01  4.374250143277E+01
  4.426741144996E+01
</grid-data>
</grid>
<valence-charge total-charge="7" is-unscreening-charge="yes"
 rescaled-to-z-pseudo="no">
<radfunc>
<data npts="457">
  9.026929990588E-03  9.054135570866E-03  9.135514353001E-03  9.271456248571E-03
  9.460824082962E-03  9.710464029873E-03  1.002968372082E-02  1.039667360252E-02
  1.081117229367E-02  1.129702973213E-02  1.184788723934E-02  1.245049818111E-02
  1.318417059488E-02  1.395671427954E-02  1.487632853321E-02  1.580369530631E-02
  1.688267450036E-02  1.791641390755E-02  1.909132350345E-02  2.042796778589E-02
  2.195020892944E-02  2.332013263631E-02  2.484280174969E-02  2.653665908838E-02
  2.842261517898E-02  3.052441278124E-02  3.286904844629E-02  3.480522225974E-02
  3.690972174889E-02  3.919858532238E-02  4.168953060131E-02  4.440214135978E-02
  4.735807505726E-02  5.058129290693E-02  5.409831450569E-02  5.793849910594E-02
  6.213435562407E-02  6.672188344352E-02  7.001734503053E-02  7.351736035840E-02
  7.723567863806E-02  8.118701080990E-02  8.538709368378E-02  8.985275735881E-02
  9.460199590322E-02  9.965404123390E-02  1.050294400867E-01  1.107501339107E-01
  1.168395414524E-01  1.233226437141E-01  1.302260708819E-01  1.375781907058E-01
  1.454091976959E-01  1.537512023509E-01  1.626383194746E-01  1.721067544478E-01
  1.821948861102E-01  1.929433446646E-01  2.043950827435E-01  2.165954374669E-01
  2.295921809745E-01  2.434355565215E-01  2.581782967937E-01  2.738756206062E-01
  2.905852036080E-01  3.083671180153E-01  3.272837357334E-01  3.371876449524E-01
  3.473995885022E-01  3.579279391800E-01  3.687811779141E-01  3.799678845149E-01
  3.914967273046E-01  4.033764515503E-01  4.156158666149E-01  4.282238317417E-01
  4.412092403807E-01  4.545810029640E-01  4.683480280319E-01  4.825192016081E-01
  4.971033647211E-01  5.121092889624E-01  5.275456499723E-01  5.434209987408E-01
  5.597437306086E-01  5.765220518542E-01  5.937639437505E-01  6.114771239765E-01
  6.296690052711E-01  6.483466512188E-01  6.675167290614E-01  6.871854594379E-01
  7.073585629581E-01  7.280412035329E-01  7.492379283886E-01  7.709526047148E-01
  7.931883529093E-01  8.159474764065E-01  8.392313881001E-01  8.630405334002E-01
  8.873743099964E-01  9.122309844373E-01  9.376076056761E-01  9.634999157808E-01
  9.899022580557E-01  1.016807482880E+00  1.044206851629E+00  1.072089939106E+00
  1.100444534991E+00  1.129256544882E+00  1.158509891580E+00  1.188186417355E+00
  1.218265788023E+00  1.248725399720E+00  1.279540289391E+00  1.310683050036E+00
  1.342123751895E+00  1.373829870781E+00  1.405766224872E+00  1.437894921295E+00
  1.470175313920E+00  1.502563973767E+00  1.535014673477E+00  1.567478387269E+00
  1.599903307751E+00  1.632234880944E+00  1.664415860723E+00  1.696386383805E+00
  1.728084066231E+00  1.759444122113E+00  1.790399505198E+00  1.820881073528E+00
  1.850817777222E+00  1.880136869078E+00  1.908764137367E+00  1.936624159864E+00
  1.963640577799E+00  1.989736388086E+00  2.014834251858E+00  2.038856817028E+00
  2.061727052386E+00  2.083368590490E+00  2.103706076527E+00  2.122665520254E+00
  2.140174648173E+00  2.156163253271E+00  2.170563539875E+00  2.183310461570E+00
  2.194342050591E+00  2.203599737655E+00  2.211028661863E+00  2.216577971003E+00
  2.220201113297E+00  2.221856122374E+00  2.221505897895E+00  2.219118484807E+00
  2.214667354602E+00  2.208131692112E+00  2.199496691277E+00  2.188753862895E+00
  2.175901356545E+00  2.160944297718E+00  2.143895139557E+00  2.124774026632E+00
  2.103609165837E+00  2.080437196852E+00  2.055303551835E+00  2.028262791147E+00
  1.999378899237E+00  1.968725522461E+00  1.936386128768E+00  1.902454068233E+00
  1.867032513359E+00  1.830234259301E+00  1.792180861082E+00  1.752999482891E+00
  1.712818399596E+00  1.671765564513E+00  1.629968556688E+00  1.587553462058E+00
  1.544644149599E+00  1.501361499539E+00  1.457822667443E+00  1.414140393194E+00
  1.370422370310E+00  1.326770690846E+00  1.283281380077E+00  1.240044033536E+00
  1.197141566512E+00  1.154650218389E+00  1.112640224691E+00  1.071176843137E+00
  1.030320545165E+00  9.901268575453E-01  9.506465029863E-01  9.119254576790E-01
  8.740050427390E-01  8.369220302209E-01  8.007087637143E-01  7.653932919893E-01
  7.309995141617E-01  6.975473348897E-01  6.650528280172E-01  6.335284074452E-01
  6.029830036296E-01  5.734222444774E-01  5.448486393569E-01  5.172617650204E-01
  4.906584523114E-01  4.650329726063E-01  4.403772230164E-01  4.166809094572E-01
  3.939317267721E-01  3.721155351779E-01  3.512165323800E-01  3.312174207836E-01
  3.120995693015E-01  2.938431693371E-01  2.764273845905E-01  2.598304943918E-01
  2.440300303670E-01  2.290029062451E-01  2.147255407190E-01  2.011739733023E-01
  1.883239731738E-01  1.761511410471E-01  1.646310041357E-01  1.537391043209E-01
  1.434510796563E-01  1.337427393666E-01  1.245901325209E-01  1.159696105742E-01
  1.078578839859E-01  1.002320731331E-01  9.306975374418E-02  8.634899708172E-02
  8.004840510946E-02  7.414714087663E-02  6.862495435538E-02  6.346220396562E-02
  5.863987402079E-02  5.413958832648E-02  4.994362016219E-02  4.603489887455E-02
  4.239701330812E-02  3.901421229788E-02  3.587140244485E-02  3.295414339359E-02
  3.024864082718E-02  2.774173739170E-02  2.542090175786E-02  2.327421602282E-02
  2.129036164959E-02  1.945860413512E-02  1.776877659134E-02  1.621126241571E-02
  1.477697721935E-02  1.345735017220E-02  1.224430491492E-02  1.113024017761E-02
  1.010801023491E-02  9.170905317202E-03  8.312632086371E-03  7.527294274688E-03
  6.809373574565E-03  6.153710856790E-03  5.555487784840E-03  5.010208883204E-03
  4.513684108426E-03  4.062011962792E-03  3.651563182350E-03  3.278965023284E-03
  2.941086163555E-03  2.635022230307E-03  2.358081957672E-03  2.107773974478E-03
  1.881794216813E-03  1.678013956497E-03  1.494468433246E-03  1.329346075606E-03
  1.180978293576E-03  1.047829824206E-03  9.284896102691E-04  8.216621913430E-04
  7.261595862002E-04  6.408936453258E-04  5.648688525004E-04  4.971755547370E-04
  4.369836003600E-04  3.835363656204E-04  3.361451509292E-04  2.941839285185E-04
  2.570844240851E-04  2.243315157125E-04  1.954589340901E-04  1.700452487376E-04
  1.477101255991E-04  1.281108419803E-04  1.109390453779E-04  9.591774327614E-05
  8.279851148451E-05  7.135890904800E-05  6.140008819733E-05  5.274458821597E-05
  4.523430249377E-05  3.872860841526E-05  3.310265010140E-05  2.824576438562E-05
  2.406004076594E-05  2.045900643335E-05  1.736642783565E-05  1.471522059585E-05
  1.244645996513E-05  1.050848435261E-05  8.856084836462E-06  7.449773922986E-06
  6.255127180457E-06  5.242191732028E-06  4.384955945033E-06  3.660875001446E-06
  3.050447374591E-06  2.536837569131E-06  2.105540803707E-06  1.744085627206E-06
  1.441770759605E-06  1.189432735812E-06  9.792412052743E-07  8.045190008518E-07
  6.595843372379E-07  5.396127318025E-07  4.405164591639E-07  3.588395550643E-07
  2.916665754638E-07  2.365434934503E-07  1.914092799735E-07  1.545368650011E-07
  1.244823139781E-07  1.000411810089E-07  8.021111557616E-08  6.415990448398E-08
  5.119822570302E-08  4.075647655098E-08  3.236511580461E-08  2.563802854400E-08
  2.025848439720E-08  1.596731498336E-08  1.255298532258E-08  9.843277340922E-09
  7.698341870444E-09  6.004909218581E-09  4.671477916330E-09  3.624327079627E-09
  2.804220327282E-09  2.163688756846E-09  1.664797420151E-09  1.277314367582E-09
  9.772139203259E-10  7.454566327144E-10  5.669976466793E-10  4.299830183781E-10
  3.251002926622E-10  2.450552734551E-10  1.841517282910E-10  1.379547973494E-10
  1.030222602931E-10  7.669064328878E-11  5.690550667904E-11  4.208721278580E-11
  3.102509536468E-11  2.279429075170E-11  1.669059156075E-11  1.217958602537E-11
  8.857083007780E-12  6.418422518096E-12  4.634758095434E-12  3.334790610630E-12
  2.390749714900E-12  1.707673261550E-12  1.215238186331E-12  8.615581629971E-13
  6.084917823164E-13  4.281065460800E-13  3.000239475501E-13  2.094336641876E-13
  1.456139367534E-13  1.008333945730E-13  6.953919804318E-14  4.775923990877E-14
  3.266373957590E-14  2.224504239212E-14  1.508471829760E-14  1.018486626833E-14
  6.846441008146E-15  4.581870290840E-15  3.052571207223E-15  2.024465172977E-15
  1.336449127181E-15  8.781485671989E-16  5.742916940557E-16  3.737844830300E-16
  2.421079794819E-16  1.560524588895E-16  1.000875444347E-16  6.387210175122E-17
  4.055436055830E-17  2.561722230945E-17  1.609781450689E-17  1.006268418969E-17
  6.256674460472E-18  3.869234126442E-18  0.000000000000E+00  0.000000000000E+00
  0.000000000000E+00  0.000000000000E+00  0.000000000000E+00  0.000000000000E+00
  0.000000000000E+00  0.000000000000E+00  0.000000000000E+00  0.000000000000E+00
  0.000000000000E+00  0.000000000000E+00  0.000000000000E+00  0.000000000000E+00
  0.000000000000E+00  0.000000000000E+00  0.000000000000E+00  0.000000000000E+00
  0.000000000000E+00  0.000000000000E+00  0.000000000000E+00  0.000000000000E+00
  0.000000000000E+00  0.000000000000E+00  0.000000000000E+00  0.000000000000E+00
  0.000000000000E+00  0.000000000000E+00  0.000000000000E+00  0.000000000000E+00
  0.000000000000E+00  0.000000000000E+00  0.000000000000E+00  0.000000000000E+00
  0.000000000000E+00  0.000000000000E+00  0.000000000000E+00  0.000000000000E+00
  0.000000000000E+00  0.000000000000E+00  0.000000000000E+00  0.000000000000E+00
  0.000000000000E+00  0.000000000000E+00  0.000000000000E+00  0.000000000000E+00
  0.000000000000E+00
</data>
</radfunc>
</valence-charge>
<pseudocore-charge matching-radius="1.13675477867"
 number-of-continuous-derivatives="4">
<annotation model-charge-form="Teter function with specified parameters" />
<radfunc>
<data npts="290">
  1.859594951205E+01  1.859515600978E+01  1.859278387092E+01  1.858882601512E+01
  1.858332258606E+01  1.857608499963E+01  1.856685886960E+01  1.855629150300E+01
  1.854440624355E+01  1.853054161250E+01  1.851490792835E+01  1.849790811543E+01
  1.847735302079E+01  1.845587381474E+01  1.843052081346E+01  1.840518492241E+01
  1.837599050278E+01  1.834829804280E+01  1.831714399448E+01  1.828210232844E+01
  1.824269637751E+01  1.820767330295E+01  1.816921609366E+01  1.812699601994E+01
  1.808065456425E+01  1.802980107856E+01  1.797401033604E+01  1.792865054370E+01
  1.788004469496E+01  1.782796999638E+01  1.777218982400E+01  1.771245309424E+01
  1.764849364507E+01  1.758002963577E+01  1.750676297552E+01  1.742837879260E+01
  1.734454495829E+01  1.725491168168E+01  1.719175338429E+01  1.712574102559E+01
  1.705675754594E+01  1.698468228026E+01  1.690939097433E+01  1.683075581839E+01
  1.674864549998E+01  1.666292527848E+01  1.657345708356E+01  1.648009964027E+01
  1.638270862358E+01  1.628113684524E+01  1.617523447637E+01  1.606484930889E+01
  1.594982705955E+01  1.583001172037E+01  1.570524595921E+01  1.557537157489E+01
  1.544023001092E+01  1.529966293237E+01  1.515351287036E+01  1.500162393876E+01
  1.484384262777E+01  1.468001867888E+01  1.451000604578E+01  1.433366394547E+01
  1.415085800377E+01  1.396146149879E+01  1.376535670558E+01  1.366475472629E+01
  1.356243634477E+01  1.345839003821E+01  1.335260513670E+01  1.324507187773E+01
  1.313578146215E+01  1.302472611188E+01  1.291189912925E+01  1.279729495785E+01
  1.268090924500E+01  1.256273890571E+01  1.244278218805E+01  1.232103874001E+01
  1.219750967758E+01  1.207219765417E+01  1.194510693109E+01  1.181624344915E+01
  1.168561490120E+01  1.155323080536E+01  1.141910257908E+01  1.128324361359E+01
  1.114566934870E+01  1.100639734784E+01  1.086544737293E+01  1.072284145906E+01
  1.057860398864E+01  1.043276176479E+01  1.028534408373E+01  1.013638280580E+01
  9.985912424859E+00  9.833970135789E+00  9.680595899588E+00  9.525832505850E+00
  9.369725632150E+00  9.212323899951E+00  9.053678926600E+00  8.893845372959E+00
  8.732880986206E+00  8.570846637314E+00  8.407806352705E+00  8.243827339550E+00
  8.078980004187E+00  7.913337963087E+00  7.746978045816E+00  7.579980289412E+00
  7.412427923588E+00  7.244407346175E+00  7.076008088208E+00  6.907322768061E+00
  6.738447034048E+00  6.569479494890E+00  6.400521637506E+00  6.231677731548E+00
  6.063054720160E+00  5.894762096466E+00  5.726911765294E+00  5.559617889731E+00
  5.392996722107E+00  5.227166419074E+00  5.062246840530E+00  4.898359332160E+00
  4.735626491488E+00  4.574171917378E+00  4.414119943059E+00  4.255595352805E+00
  4.098723082536E+00  3.943627904739E+00  3.790434098179E+00  3.639265103083E+00
  3.490243162546E+00  3.343488951117E+00  3.199121191643E+00  3.057256261628E+00
  2.918007790530E+00  2.781486249579E+00  2.647798535902E+00  2.517047552875E+00
  2.389331788825E+00  2.264744896393E+00  2.143375274973E+00  2.025305658893E+00
  1.910612714076E+00  1.799366646107E+00  1.691630822748E+00  1.587461414040E+00
  1.486907053243E+00  1.390008521892E+00  1.296798462339E+00  1.207301121101E+00
  1.121532126353E+00  1.039498302819E+00  9.611975272246E-01  8.866186273197E-01
  8.157413273070E-01  7.485362422643E-01  6.849649238731E-01  6.249799594309E-01
  5.685251257443E-01  5.155355990686E-01  4.659382217822E-01  4.196518259527E-01
  3.765876133979E-01  3.366495912220E-01  2.997350611802E-01  2.657351605543E-01
  2.345354515375E-01  2.060165554335E-01  1.800548272789E-01  1.565230658161E-01
  1.352912530846E-01  1.162273172767E-01  9.919791193030E-02  8.406920402656E-02
  7.070766312995E-02  5.898084337592E-02  4.875814988254E-02  3.991158105623E-02
  3.231643828594E-02  2.585199468652E-02  2.040211486752E-02  1.585581817369E-02
  1.210777846924E-02  9.058754318965E-03  6.615944349212E-03  4.693263640830E-03
  3.211538201561E-03  2.098615867109E-03  1.289393366412E-03  7.257607300251E-04
  3.564656900963E-04  1.369021820666E-04  2.882847514200E-05  2.179236946959E-08
  2.387749283439E-05  7.896193978521E-05  1.485290331594E-04  2.200110103042E-04
  2.844944869551E-04  3.361928005301E-04  3.719255161691E-04  3.906154584401E-04
  3.928128440392E-04  3.802550296541E-04  3.554690818868E-04  3.214228609527E-04
  2.812286349640E-04  2.379014638665E-04  1.941727752781E-04  1.523577668197E-04
  1.142735809543E-04  8.120367721464E-05  5.390253642770E-05  3.263382708376E-05
  1.723448851861E-05  7.196867458495E-06  1.761094924121E-06  1.030193690291E-08
  9.620179960460E-07  3.650130187669E-06  7.193040357263E-06  1.084506641736E-05
  1.402960528253E-05  1.635401836228E-05  1.760752667555E-05  1.774452981456E-05
  1.685662325148E-05  1.513713308315E-05  1.284219091394E-05  1.025223492358E-05
  7.637373701785E-06  5.229339687403E-06  3.201862738058E-06  1.660300317427E-06
  6.403652175201E-07  1.148893047283E-07  6.836465583849E-09  2.062944797492E-07
  5.889725665006E-07  1.033816871966E-06  1.437706422971E-06  1.725753844661E-06
  1.856431631846E-06  1.821484600855E-06  1.641277515695E-06  1.356777552393E-06
  1.019717948220E-06  6.825945980313E-07  3.900086039881E-07  1.725169621414E-07
  4.365329300690E-08  2.146376150971E-10  0.000000000000E+00  0.000000000000E+00
  0.000000000000E+00  0.000000000000E+00  0.000000000000E+00  0.000000000000E+00
  0.000000000000E+00  0.000000000000E+00  0.000000000000E+00  0.000000000000E+00
  0.000000000000E+00  0.000000000000E+00  0.000000000000E+00  0.000000000000E+00
  0.000000000000E+00  0.000000000000E+00  0.000000000000E+00  0.000000000000E+00
  0.000000000000E+00  0.000000000000E+00  0.000000000000E+00  0.000000000000E+00
  0.000000000000E+00  0.000000000000E+00  0.000000000000E+00  0.000000000000E+00
  0.000000000000E+00  0.000000000000E+00  0.000000000000E+00  0.000000000000E+00
  0.000000000000E+00  0.000000000000E+00
</data>
</radfunc>
</pseudocore-charge>
<semilocal-potentials set="scalar_relativistic">
<slps n="4" l="s" rc="1.81011753795" eref="-0.739928039909">
<radfunc>
<data npts="290">
  6.020692046672E+01  6.016699435005E+01  6.004789814378E+01  5.985005771093E+01
  5.957674984136E+01  5.922045664360E+01  5.877135869544E+01  5.826385205534E+01
  5.770164234128E+01  5.705701800078E+01  5.634423830482E+01  5.558561866919E+01
  5.469044952051E+01  5.377992779949E+01  5.273655890841E+01  5.172632461372E+01
  5.060051032600E+01  4.956865016561E+01  4.844760086307E+01  4.723432292730E+01
  4.592667937271E+01  4.481188596704E+01  4.363607839996E+01  4.239991857305E+01
  4.110472044152E+01  3.975249546156E+01  3.834598534749E+01  3.725754888276E+01
  3.614227254264E+01  3.500213681217E+01  3.383934626048E+01  3.265631749673E+01
  3.145566326397E+01  3.024017279639E+01  2.901278867948E+01  2.777658056494E+01
  2.653471619678E+01  2.529043029719E+01  2.446117501828E+01  2.363326662091E+01
  2.280767105696E+01  2.198534560389E+01  2.116723452591E+01  2.035426484651E+01
  1.954734227035E+01  1.874734729050E+01  1.795513151371E+01  1.717151423330E+01
  1.639727927534E+01  1.563317214006E+01  1.487989745597E+01  1.413811676029E+01
  1.340844661492E+01  1.269145706328E+01  1.198767042947E+01  1.129756045760E+01
  1.062155178626E+01  9.960019749791E+00  9.313290496245E+00  8.681641409691E+00
  8.065301823184E+00  7.464454007858E+00  6.879234423051E+00  6.309735212291E+00
  5.756005930300E+00  5.218055486744E+00  4.695854293281E+00  4.440640463804E+00
  4.189336601500E+00  3.941929250843E+00  3.698403020297E+00  3.458740670072E+00
  3.222923202305E+00  2.990929953584E+00  2.762738689753E+00  2.538325702933E+00
  2.317665910675E+00  2.100732957179E+00  1.887499316499E+00  1.677936397650E+00
  1.472014651524E+00  1.269703679501E+00  1.070972343666E+00  8.757888784834E-01
  6.841210037769E-01  4.959360388928E-01  3.112010178095E-01  1.298828050326E-01
 -4.805178798915E-02 -2.226358861670E-01 -3.939024340960E-01 -5.618840797304E-01
 -7.266130587567E-01 -8.881210800834E-01 -1.046439212868E+00 -1.201597775595E+00
 -1.353626227693E+00 -1.502553064299E+00 -1.648405714783E+00 -1.791210445680E+00
 -1.930992268787E+00 -2.067774855127E+00 -2.201580455656E+00 -2.332429829507E+00
 -2.460342180681E+00 -2.585335104113E+00 -2.707424542051E+00 -2.826624751725E+00
 -2.942948285302E+00 -3.056405983078E+00 -3.167006980952E+00 -3.274758733035E+00
 -3.379667050421E+00 -3.481736156862E+00 -3.580968762221E+00 -3.677366154283E+00
 -3.770928309567E+00 -3.861654023430E+00 -3.949541059767E+00 -4.034586320237E+00
 -4.116786032800E+00 -4.196135959019E+00 -4.272631619293E+00 -4.346268534817E+00
 -4.417042484687E+00 -4.484949776158E+00 -4.549987525609E+00 -4.612153947261E+00
 -4.671448646268E+00 -4.727872912205E+00 -4.781430008504E+00 -4.832125452852E+00
 -4.879967283082E+00 -4.924966302573E+00 -4.967136298804E+00 -5.006494228305E+00
 -5.043060361011E+00 -5.076858376864E+00 -5.107915407478E+00 -5.136262015877E+00
 -5.161932107644E+00 -5.184962767390E+00 -5.205394015344E+00 -5.223268479930E+00
 -5.238630983667E+00 -5.251528041478E+00 -5.262007272612E+00 -5.270116729836E+00
 -5.275904152355E+00 -5.279416152097E+00 -5.280697346436E+00 -5.279789454151E+00
 -5.276730375401E+00 -5.271553280562E+00 -5.264285736913E+00 -5.254948906218E+00
 -5.243556850146E+00 -5.230115983914E+00 -5.214624721453E+00 -5.197073357532E+00