<?xml version="1.0" encoding="UTF-8" ?>
<psml version="1.1" energy_unit="hartree" length_unit="bohr"
 uuid="0b4f8810-be42-11e7-568c-2e433f4c6fd4"
 xmlns="http://esl.cecam.org/PSML/ns/1.1">
<provenance creator="ONCVPSP-3.3.0+psml-3.3.0-73 (scalar-relativistic)"
 date="2017-10-31">
<annotation action="semilocal-pseudopotential-generation"
 action-cont="projectors-generation" />
<input-file name="oncvpsp-input">
<![CDATA[# atsym z nc nv iexc psfile
Cu 29 3 4 4 upf
# n l f
1 0 2.0
2 0 2.0
2 1 6.0
3 0 2.0
3 1 6.0
3 2 10.0
4 0 1.0
# lmax
2
# l rc ep ncon nbas qcut
0 1.25 0.0 4 8 9.0
1 1.45 0.0 4 8 9.5
2 1.75 0.0 4 7 9.5
# lloc lpopt rc5 dvloc0
4 5 1.2 0.0
# l nproj debl
0 2 1.5
1 2 1.5
2 2 2.0
# icmod fcfact rcfact
3 3.5 1.65
# epsh1 epsh2 depsh
-12.0 12.0 0.02
# rlmax drl
6.0 0.01
 0
]]>
</input-file>
</provenance>
<pseudo-atom-spec atomic-label="Cu" atomic-number="29" z-pseudo="19"
 flavor="Hamann&apos;s oncvpsp" relativity="scalar" spin-dft="no"
 core-corrections="yes">
<annotation pseudo-energy="-185.377975869" />
<exchange-correlation>
<annotation oncvpsp-xc-code="4" oncvpsp-xc-type="GGA -- Perdew-Burke-Ernzerhof" />
<libxc-info number-of-functionals="2">
<functional name="Perdew, Burke &amp; Ernzerhof (GGA)" type="exchange" id="101" />
<functional name="Perdew, Burke &amp; Ernzerhof (GGA)" type="correlation"
 id="130" />
</libxc-info>
</exchange-correlation>
<valence-configuration total-valence-charge="19">
<shell n="3" l="s" occupation="2" />
<shell n="3" l="p" occupation="6" />
<shell n="3" l="d" occupation="10" />
<shell n="4" l="s" occupation="1" />
</valence-configuration>
</pseudo-atom-spec>
<grid npts="457">
<annotation type="sampled from oncvpsp log grid"
 recipe="r(i:1..N) = r1*exp(a*(i-1)) + r=0; resampled"
 recipe-cont="r1: scale; a: step" scale="0.172413793103E-04"
 step="0.119285708653E-01" delta="0.500000000000E-02" rmax="44.1434196577" />
<grid-data>
  0.000000000000E+00  5.040759278960E-03  1.006852107514E-02  1.510438714353E-02
  2.011108069843E-02  2.522697322451E-02  3.053186590510E-02  3.565332260536E-02
  4.114017728858E-02  4.635229949226E-02  5.160548885826E-02  5.677275850950E-02
  6.245742807768E-02  6.789654638074E-02  7.293412198510E-02  7.834545986930E-02
  8.415829127808E-02  8.933043969595E-02  9.482045482488E-02  1.006478719214E-01
  1.068334268276E-01  1.120544760441E-01  1.175306828056E-01  1.232745168994E-01
  1.292990575229E-01  1.356180230659E-01  1.422458023490E-01  1.474283472209E-01
  1.527997115230E-01  1.583667746511E-01  1.641366666430E-01  1.701167773103E-01
  1.763147657031E-01  1.827385699191E-01  1.893964172706E-01  1.962968348216E-01
  2.034486603088E-01  2.108610534604E-01  2.159520827352E-01  2.211660298207E-01
  2.265058624447E-01  2.319746199876E-01  2.375754152126E-01  2.433114360375E-01
  2.491859473491E-01  2.552022928619E-01  2.613638970208E-01  2.676742669505E-01
  2.741369944517E-01  2.807557580458E-01  2.875343250680E-01  2.944765538125E-01
  3.015863957277E-01  3.088678976662E-01  3.163252041874E-01  3.239625599173E-01
  3.317843119640E-01  3.397949123920E-01  3.479989207568E-01  3.564010066996E-01
  3.650059526053E-01  3.738186563250E-01  3.828441339633E-01  3.920875227337E-01
  4.015540838826E-01  4.112492056839E-01  4.211784065059E-01  4.262325473840E-01
  4.313473379526E-01  4.365235060080E-01  4.417617880801E-01  4.470629295371E-01
  4.524276846915E-01  4.578568169078E-01  4.633510987107E-01  4.689113118952E-01
  4.745382476380E-01  4.802327066096E-01  4.859954990890E-01  4.918274450780E-01
  4.977293744190E-01  5.037021269120E-01  5.097465524349E-01  5.158635110642E-01
  5.220538731969E-01  5.283185196753E-01  5.346583419114E-01  5.410742420143E-01
  5.475671329185E-01  5.541379385135E-01  5.607875937757E-01  5.675170449010E-01
  5.743272494398E-01  5.812191764331E-01  5.881938065503E-01  5.952521322289E-01
  6.023951578156E-01  6.096238997094E-01  6.169393865059E-01  6.243426591440E-01
  6.318347710537E-01  6.394167883064E-01  6.470897897661E-01  6.548548672432E-01
  6.627131256502E-01  6.706656831580E-01  6.787136713559E-01  6.868582354121E-01
  6.951005342371E-01  7.034417406479E-01  7.118830415357E-01  7.204256380341E-01
  7.290707456905E-01  7.378195946388E-01  7.466734297745E-01  7.556335109318E-01
  7.647011130630E-01  7.738775264197E-01  7.831640567368E-01  7.925620254176E-01
  8.020727697226E-01  8.116976429593E-01  8.214380146748E-01  8.312952708509E-01
  8.412708141011E-01  8.513660638703E-01  8.615824566368E-01  8.719214461164E-01
  8.823845034698E-01  8.929731175114E-01  9.036887949216E-01  9.145330604606E-01
  9.255074571862E-01  9.366135466724E-01  9.478529092325E-01  9.592271441432E-01
  9.707378698730E-01  9.823867243114E-01  9.941753650032E-01  1.006105469383E+00
  1.018178735016E+00  1.030396879836E+00  1.042761642394E+00  1.055274782103E+00
  1.067938079488E+00  1.080753336442E+00  1.093722376479E+00  1.106847044997E+00
  1.120129209537E+00  1.133570760051E+00  1.147173609172E+00  1.160939692482E+00
  1.174870968792E+00  1.188969420417E+00  1.203237053462E+00  1.217675898104E+00
  1.232288008881E+00  1.247075464988E+00  1.262040370567E+00  1.277184855014E+00
  1.292511073274E+00  1.308021206154E+00  1.323717460628E+00  1.339602070155E+00
  1.355677294997E+00  1.371945422537E+00  1.388408767607E+00  1.405069672819E+00
  1.421930508893E+00  1.438993674999E+00  1.456261599099E+00  1.473736738288E+00
  1.491421579148E+00  1.509318638098E+00  1.527430461755E+00  1.545759627296E+00
  1.564308742823E+00  1.583080447737E+00  1.602077413110E+00  1.621302342067E+00
  1.640757970172E+00  1.660447065814E+00  1.680372430604E+00  1.700536899771E+00
  1.720943342569E+00  1.741594662679E+00  1.762493798632E+00  1.783643724215E+00
  1.805047448906E+00  1.826708018293E+00  1.848628514512E+00  1.870812056686E+00
  1.893261801367E+00  1.915980942983E+00  1.938972714299E+00  1.962240386870E+00
  1.985787271513E+00  2.009616718771E+00  2.033732119396E+00  2.058136904829E+00
  2.082834547687E+00  2.107828562259E+00  2.133122505006E+00  2.158719975066E+00
  2.184624614767E+00  2.210840110144E+00  2.237370191466E+00  2.264218633764E+00
  2.291389257369E+00  2.318885928457E+00  2.346712559599E+00  2.374873110314E+00
  2.403371587638E+00  2.432212046689E+00  2.461398591250E+00  2.490935374345E+00
  2.520826598837E+00  2.551076518023E+00  2.581689436239E+00  2.612669709474E+00
  2.644021745988E+00  2.675750006939E+00  2.707859007023E+00  2.740353315107E+00
  2.773237554888E+00  2.806516405547E+00  2.840194602413E+00  2.874276937642E+00
  2.908768260894E+00  2.943673480025E+00  2.978997561785E+00  3.014745532527E+00
  3.050922478917E+00  3.087533548664E+00  3.124583951248E+00  3.162078958663E+00
  3.200023906167E+00  3.238424193041E+00  3.277285283357E+00  3.316612706758E+00
  3.356412059239E+00  3.396689003950E+00  3.437449271997E+00  3.478698663261E+00
  3.520443047220E+00  3.562688363787E+00  3.605440624152E+00  3.648705911642E+00
  3.692490382582E+00  3.736800267173E+00  3.781641870379E+00  3.827021572823E+00
  3.872945831697E+00  3.919421181678E+00  3.966454235858E+00  4.014051686688E+00
  4.062220306928E+00  4.110966950611E+00  4.160298554019E+00  4.210222136667E+00
  4.260744802307E+00  4.311873739935E+00  4.363616224814E+00  4.415979619512E+00
  4.468971374946E+00  4.522599031445E+00  4.576870219822E+00  4.631792662460E+00
  4.687374174410E+00  4.743622664503E+00  4.800546136477E+00  4.858152690114E+00
  4.916450522396E+00  4.975447928665E+00  5.035153303809E+00  5.095575143454E+00
  5.156722045176E+00  5.218602709718E+00  5.281225942234E+00  5.344600653541E+00
  5.408735861384E+00  5.473640691720E+00  5.539324380021E+00  5.605796272581E+00
  5.673065827852E+00  5.741142617786E+00  5.810036329200E+00  5.879756765150E+00
  5.950313846332E+00  6.021717612488E+00  6.093978223838E+00  6.167105962524E+00
  6.241111234074E+00  6.316004568883E+00  6.391796623710E+00  6.468498183194E+00
  6.546120161393E+00  6.624673603329E+00  6.704169686569E+00  6.784619722808E+00
  6.866035159482E+00  6.948427581396E+00  7.031808712372E+00  7.116190416921E+00
  7.201584701924E+00  7.288003718347E+00  7.375459762967E+00  7.463965280123E+00
  7.553532863484E+00  7.644175257846E+00  7.735905360940E+00  7.828736225271E+00
  7.922681059975E+00  8.017753232694E+00  8.113966271487E+00  8.211333866745E+00
  8.309869873145E+00  8.409588311623E+00  8.510503371363E+00  8.612629411819E+00
  8.715980964761E+00  8.820572736338E+00  8.926419609174E+00  9.033536644484E+00
  9.141939084218E+00  9.251642353229E+00  9.362662061467E+00  9.475014006205E+00
  9.588714174279E+00  9.703778744371E+00  9.820224089303E+00  9.938066778375E+00
  1.005732357972E+01  1.017801146267E+01  1.030014760022E+01  1.042374937143E+01
  1.054883436388E+01  1.067542037625E+01  1.080352542077E+01  1.093316772581E+01
  1.106436573852E+01  1.119713812739E+01  1.133150378492E+01  1.146748183033E+01
  1.160509161230E+01  1.174435271165E+01  1.188528494419E+01  1.202790836352E+01
  1.217224326388E+01  1.231831018304E+01  1.246612990524E+01  1.261572346410E+01
  1.276711214567E+01  1.292031749142E+01  1.307536130132E+01  1.323226563693E+01
  1.339105282458E+01  1.355174545847E+01  1.371436640397E+01  1.387893880082E+01
  1.404548606643E+01  1.421403189923E+01  1.438460028202E+01  1.455721548540E+01
  1.473190207123E+01  1.490868489608E+01  1.508758911484E+01  1.526864018421E+01
  1.545186386642E+01  1.563728623282E+01  1.582493366762E+01  1.601483287163E+01
  1.620701086609E+01  1.640149499648E+01  1.659831293644E+01  1.679749269167E+01
  1.699906260397E+01  1.720305135522E+01  1.740948797149E+01  1.761840182714E+01
  1.782982264907E+01  1.804378052086E+01  1.826030588711E+01  1.847942955775E+01
  1.870118271245E+01  1.892559690500E+01  1.915270406786E+01  1.938253651667E+01
  1.961512695487E+01  1.985050847833E+01  2.008871458007E+01  2.032977915503E+01
  2.057373650489E+01  2.082062134295E+01  2.107046879906E+01  2.132331442465E+01
  2.157919419775E+01  2.183814452812E+01  2.210020226246E+01  2.236540468961E+01
  2.263378954588E+01  2.290539502043E+01  2.318025976068E+01  2.345842287781E+01
  2.373992395234E+01  2.402480303977E+01  2.431310067625E+01  2.460485788436E+01
  2.490011617897E+01  2.519891757312E+01  2.550130458400E+01  2.580732023901E+01
  2.611700808187E+01  2.643041217886E+01  2.674757712500E+01  2.706854805050E+01
  2.739337062711E+01  2.772209107463E+01  2.805475616753E+01  2.839141324154E+01
  2.873211020044E+01  2.907689552284E+01  2.942581826912E+01  2.977892808835E+01
  3.013627522541E+01  3.049791052811E+01  3.086388545445E+01  3.123425207990E+01
  3.160906310486E+01  3.198837186212E+01  3.237223232447E+01  3.276069911236E+01
  3.315382750171E+01  3.355167343173E+01  3.395429351291E+01  3.436174503506E+01
  3.477408597549E+01  3.519137500719E+01  3.561367150728E+01  3.604103556537E+01
  3.647352799215E+01  3.691121032806E+01  3.735414485199E+01  3.780239459022E+01
  3.825602332530E+01  3.871509560520E+01  3.917967675246E+01  3.964983287349E+01
  4.012563086798E+01  4.060713843839E+01  4.109442409965E+01  4.158755718885E+01
  4.208660787511E+01  4.259164716962E+01  4.310274693565E+01  4.361997989888E+01
  4.414341965767E+01
</grid-data>
</grid>
<valence-charge total-charge="19" is-unscreening-charge="yes"
 rescaled-to-z-pseudo="no">
<radfunc>
<data npts="457">
  2.049276417990E+01  2.050104538961E+01  2.052579591710E+01  2.056707256423E+01
  2.062442858476E+01  2.069978784628E+01  2.079573703110E+01  2.090547600000E+01
  2.104157092296E+01  2.118846669906E+01  2.135373508636E+01  2.153299926159E+01
  2.174913313835E+01  2.197425706906E+01  2.219853075992E+01  2.245609330860E+01
  2.275166543015E+01  2.303082682392E+01  2.334348038324E+01  2.369337132869E+01
  2.408458836448E+01  2.443028968522E+01  2.480771375938E+01  2.521944238878E+01
  2.566819540655E+01  2.615682068451E+01  2.668827864191E+01  2.711681362989E+01
  2.757246746665E+01  2.805656060327E+01  2.857041179141E+01  2.911532425183E+01
  2.969256910053E+01  3.030336565818E+01  3.094885823696E+01  3.163008896848E+01
  3.234796620981E+01  3.310322804443E+01  3.362777499380E+01  3.416927017902E+01
  3.472774917379E+01  3.530318176967E+01  3.589546380059E+01  3.650440833836E+01
  3.712973624335E+01  3.777106606017E+01  3.842790325555E+01  3.909962880420E+01
  3.978548713905E+01  4.048457349566E+01  4.119582069502E+01  4.191798542793E+01
  4.264963412409E+01  4.338912851404E+01  4.413461101919E+01  4.488399013674E+01
  4.563492602151E+01  4.638481650591E+01  4.713078384226E+01  4.786966249902E+01
  4.859798839268E+01  4.931198999104E+01  5.000758177921E+01  5.068036063711E+01
  5.132560573394E+01  5.193828260019E+01  5.251305208821E+01  5.278447323677E+01
  5.304428497553E+01  5.329174177582E+01  5.352608299773E+01  5.374653395563E+01
  5.395230711550E+01  5.414260343018E+01  5.431661381830E+01  5.447352079233E+01
  5.461250024110E+01  5.473272337139E+01  5.483335881274E+01  5.491357488922E+01
  5.497254206078E+01  5.500943553638E+01  5.502343805981E+01  5.501374286828E+01
  5.497955682258E+01  5.492010370630E+01  5.483462769007E+01  5.472239695550E+01
  5.458270747138E+01  5.441488691322E+01  5.421829871507E+01  5.399234624044E+01
  5.373647705711E+01  5.345018729817E+01  5.313302608924E+01  5.278460001942E+01
  5.240457763090E+01  5.199269389968E+01  5.154875467711E+01  5.107264105963E+01
  5.056431365128E+01  5.002381668141E+01  4.945128193762E+01  4.884693247161E+01
  4.821108603428E+01  4.754415819415E+01  4.684666509238E+01  4.611922578661E+01
  4.536256413526E+01  4.457751017426E+01  4.376500093862E+01  4.292608068260E+01
  4.206190045418E+01  4.117371698216E+01  4.026289083790E+01  3.933088383778E+01
  3.837925565769E+01  3.740965963707E+01  3.642383775673E+01  3.542361478258E+01
  3.441089157598E+01  3.338763758109E+01  3.235588250929E+01  3.131770725218E+01
  3.027523406543E+01  2.923061607782E+01  2.818602619158E+01  2.714364545217E+01
  2.610565097740E+01  2.507420354692E+01  2.405143496430E+01  2.303943531284E+01
  2.204024023562E+01  2.105581837658E+01  2.008805912494E+01  1.913876080859E+01
  1.820961948257E+01  1.730221845763E+01  1.641801870909E+01  1.555835029981E+01
  1.472440494062E+01  1.391722979921E+01  1.313772265306E+01  1.238662846379E+01
  1.166453743026E+01  1.097188455524E+01  1.030895073671E+01  9.675865370078E+00
  9.072610422015E+00  8.499025911382E+00  7.954816708363E+00  7.439560539698E+00
  6.952717067077E+00  6.493637887498E+00  6.061577289497E+00  5.655703588020E+00
  5.275110853683E+00  4.918830849441E+00  4.585844989535E+00  4.275096375298E+00
  3.985502361570E+00  3.715966934212E+00  3.465390409069E+00  3.232678452477E+00
  3.016750246761E+00  2.816545785975E+00  2.631032249047E+00  2.459209434242E+00
  2.300114258235E+00  2.152824343628E+00  2.016460736782E+00  1.890189472417E+00
  1.773221169901E+00  1.664809668522E+00  1.564253271211E+00  1.470895435466E+00
  1.384125047688E+00  1.303376298294E+00  1.228128202673E+00  1.157903808962E+00
  1.092269129334E+00  1.030831827198E+00  9.732396887136E-01  9.191789033151E-01
  8.683721746085E-01  8.205766799387E-01  7.755818941478E-01  7.332060795227E-01
  6.932879729090E-01  6.556760572118E-01  6.202281149735E-01  5.868106602430E-01
  5.552984724155E-01  5.255741455040E-01  4.975276533901E-01  4.710559314511E-01
  4.460624748286E-01  4.224569534796E-01  4.001548440431E-01  3.790770784557E-01
  3.591497091654E-01  3.403035907139E-01  3.224740773927E-01  3.056007366222E-01
  2.896270776536E-01  2.745002951534E-01  2.601710271978E-01  2.465931271781E-01
  2.337234490988E-01  2.215216457344E-01  2.099499791041E-01  1.989731427162E-01
  1.885580950361E-01  1.786739036314E-01  1.692915994578E-01  1.603840407540E-01
  1.519257860276E-01  1.438929756262E-01  1.362632214028E-01  1.290155039991E-01
  1.221300772906E-01  1.155883795514E-01  1.093729509186E-01  1.034673567522E-01
  9.785611650779E-02  9.252463775692E-02  8.745915500996E-02  8.264667301442E-02
  7.807491422074E-02  7.373227012528E-02  6.960775621789E-02  6.569097027834E-02
  6.197205378219E-02  5.844165619237E-02  5.509090192763E-02  5.191135981301E-02
  4.889501483115E-02  4.603424200555E-02  4.332178225902E-02  4.075072010132E-02
  3.831446301048E-02  3.600672238175E-02  3.382149592700E-02  3.175305141543E-02
  2.979591165408E-02  2.794484061346E-02  2.619483060983E-02  2.454109046161E-02
  2.297903454346E-02  2.150427266342E-02  2.011260069849E-02  1.879999192344E-02
  1.756258897360E-02  1.639669638631E-02  1.529877366865E-02  1.426542884305E-02
  1.329341242524E-02  1.237961179249E-02  1.152104590297E-02  1.071486033024E-02
  9.958322579612E-03  9.248817656150E-03  8.583843856654E-03  7.961008760764E-03
  7.378025398812E-03  6.832708576509E-03  6.322971338916E-03  5.846821558334E-03
  5.402358632824E-03  4.987770284019E-03  4.601329444660E-03  4.241391227941E-03
  3.906389972217E-03  3.594836355976E-03  3.305314579155E-03  3.036479607892E-03
  2.787054480718E-03  2.555827674930E-03  2.341650532488E-03  2.143434745282E-03
  1.960149899978E-03  1.790821082931E-03  1.634526545781E-03  1.490395432476E-03
  1.357605568428E-03  1.235381312468E-03  1.122991472123E-03  1.019747282613E-03
  9.250004497359E-04  8.381412566188E-04  7.585967340770E-04  6.858288941011E-04
  6.193330257725E-04  5.586360527000E-04  5.032949508889E-04  4.528952257927E-04
  4.070494471668E-04  3.653958402413E-04  3.275969316621E-04  2.933382486046E-04
  2.623270694544E-04  2.342912244587E-04  2.089779447860E-04  1.861527584818E-04
  1.655984318706E-04  1.471139550294E-04  1.305135700306E-04  1.156258407360E-04
  1.022927629954E-04  9.036891417579E-05  7.972064101238E-05  7.022528482456E-05
  6.177044318808E-05  5.425326718704E-05  4.757979339447E-05  4.166430974391E-05
  3.642875445954E-05  3.180214720840E-05  2.772005162854E-05  2.412406837015E-05
  2.096135776694E-05  1.818419123182E-05  1.574953044630E-05  1.361863338874E-05
  1.175668622279E-05  1.013246004610E-05  8.717991460950E-06  7.488286253695E-06
  6.421042451090E-06  5.496405710699E-06  4.696709547702E-06  4.006295736460E-06
  3.411310253020E-06  2.899512524076E-06  2.460079330287E-06  2.083464856111E-06
  1.761280386550E-06  1.486169664651E-06  1.251693722807E-06  1.052227502507E-06
  8.828666395938E-07  7.393436041063E-07  6.179524258717E-07  5.154812796097E-07
  4.291522459266E-07  3.565676069601E-07  2.956620772450E-07  2.446604113470E-07
  2.020398697149E-07  1.664970628379E-07  1.369187309865E-07  1.123560524291E-07
  9.200210695362E-08  7.517215369177E-08  6.128641260943E-08  4.985506755201E-08
  4.046523541752E-08  3.276967088860E-08  2.647699921551E-08  2.134329085264E-08
  1.716481136697E-08  1.377179802561E-08  1.102313090387E-08  8.801781316347E-09
  7.010933943811E-09  5.570691294183E-09  4.415280184574E-09  3.490689848517E-09
  2.752680144872E-09  2.165106255382E-09  1.698513287323E-09  1.328960423757E-09
  1.037039760018E-09  8.070598011698E-10  6.263678364742E-10  4.847891146000E-10
  3.741639739498E-10  2.879668881277E-10  2.209938221982E-10  1.691063424199E-10
  1.235103319903E-10  9.402707310937E-11  7.136708431935E-11  5.400366594022E-11
  4.073928626260E-11  3.063747010724E-11  2.296814432198E-11  1.716391832853E-11
  1.278522213557E-11  9.492595883766E-12  7.024734794354E-12  5.181150752568E-12
  3.808524805184E-12  2.790000598833E-12  2.036813251728E-12  1.481766481673E-12
  1.074167388804E-12  7.759068275355E-13  5.584369357587E-13  4.004487590840E-13
  2.860942238613E-13  2.036298183974E-13  1.443857687959E-13  1.019855112484E-13
  7.175691041301E-14  5.028981029033E-14  3.510482965540E-14  2.440639807475E-14
  1.689933222423E-14  1.165314785052E-14  8.002089308744E-15  5.471775335066E-15
  3.725597051314E-15  2.525713178640E-15  1.704787283486E-15  1.145596290687E-15
  7.663817836875E-16  5.103728663460E-16  3.383258502072E-16  2.232359162154E-16
  1.466054206199E-16  9.582273249884E-17  6.232966991959E-17  4.034630168786E-17
  2.598782031861E-17  1.665587083728E-17  1.062111836343E-17  6.738332279637E-18
  4.252920510189E-18  2.670224580792E-18  1.667656812296E-18  1.035944045930E-18
  6.400422735962E-19  3.932741854830E-19  2.403078551659E-19  1.460149096010E-19
  8.821729460756E-20  5.299168354692E-20  3.164675261154E-20  0.000000000000E+00
  0.000000000000E+00  0.000000000000E+00  0.000000000000E+00  0.000000000000E+00
  0.000000000000E+00  0.000000000000E+00  0.000000000000E+00  0.000000000000E+00
  0.000000000000E+00  0.000000000000E+00  0.000000000000E+00  0.000000000000E+00
  0.000000000000E+00  0.000000000000E+00  0.000000000000E+00  0.000000000000E+00
  0.000000000000E+00
</data>
</radfunc>
</valence-charge>
<pseudocore-charge matching-radius="0.373818656325"
 number-of-continuous-derivatives="4">
<annotation model-charge-form="Teter function with specified parameters" />
<radfunc>
<data npts="290">
  1.832800191095E+02  1.832413478002E+02  1.831257780320E+02  1.829330739301E+02
  1.826653692287E+02  1.823137551516E+02  1.818662677304E+02  1.813547361869E+02
  1.807207477895E+02  1.800369371502E+02  1.792682106913E+02  1.784351127904E+02
  1.774316741796E+02  1.763876612698E+02  1.753487673218E+02  1.741571126502E+02
  1.727914911040E+02  1.715035371297E+02  1.700631783177E+02  1.684539062259E+02
  1.666578328092E+02  1.650735744619E+02  1.633469704903E+02  1.614670109694E+02
  1.594222075332E+02  1.572006584518E+02  1.547901383847E+02  1.528507623562E+02
  1.507928283412E+02  1.486110926122E+02  1.463003911942E+02  1.438557008342E+02
  1.412722093617E+02  1.385453961707E+02  1.356711234896E+02  1.326457389934E+02
  1.294661901566E+02  1.261301505237E+02  1.238184226425E+02  1.214362830573E+02
  1.189837631249E+02  1.164611367207E+02  1.138689426297E+02  1.112080075205E+02
  1.084794693309E+02  1.056848008603E+02  1.028258333226E+02  9.990477957217E+01
  9.692425667251E+01  9.388730742577E+01  9.079742043578E+01  8.765854822432E+01
  8.447512287065E+01  8.125206859451E+01  7.799481065603E+01  7.470927990337E+01
  7.140191226399E+01  6.807964244855E+01  6.474989112300E+01  6.142054480572E+01
  5.809992776740E+01  5.479676525445E+01  5.152013742715E+01  4.827942350436E+01
  4.508423574182E+01  4.194434304398E+01  3.886958422271E+01  3.735970013030E+01
  3.586977117170E+01  3.440100217777E+01  3.295458252363E+01  3.153168235251E+01
  3.013344869612E+01  2.876100150572E+01  2.741542960953E+01  2.609778661387E+01
  2.480908676718E+01  2.355030080785E+01  2.232235181830E+01  2.112611110963E+01
  1.996239416256E+01  1.883195665218E+01  1.773549058488E+01  1.667362057778E+01
  1.564690031141E+01  1.465580918770E+01  1.370074922571E+01  1.278204222816E+01
  1.189992725158E+01  1.105455841290E+01  1.024600306470E+01  9.474240370105E+00
  8.739160307132E+00  8.040563130348E+00  7.378159315403E+00  6.751570009202E+00
  6.160328005222E+00  5.603879259713E+00  5.081584960277E+00  4.592724153628E+00
  4.136496934051E+00  3.712028188700E+00  3.318371889652E+00  2.954515916513E+00
  2.619387386741E+00  2.311858464104E+00  2.030752608861E+00  1.774851226399E+00
  1.542900664342E+00  1.333619501627E+00  1.145706066946E+00  9.778461182731E-01
  8.287206102336E-01  6.970134718289E-01  5.814193137496E-01  4.806509822589E-01
  3.934468755745E-01  3.185779389191E-01  2.548542560445E-01  2.011311581457E-01
  1.563147757090E-01  1.193669650067E-01  8.930954864718E-02  6.522781874987E-02
  4.627326185529E-02  3.166547645604E-02  2.069326686605E-02  1.271491080716E-02
  7.157612317811E-03  3.516166072120E-03  1.350873604163E-03  2.847658976803E-04
  1.999481976165E-07  2.349088482118E-04  7.775953092783E-04  1.463166960512E-03
  2.167717928540E-03  2.803364836258E-03  3.313046247596E-03  3.665392601195E-03
  3.849768775465E-03  3.871583667870E-03  3.747950715190E-03  3.503770399470E-03
  3.168290852708E-03  2.772186166938E-03  2.345174495824E-03  1.914180127509E-03
  1.502026088867E-03  1.126627197462E-03  8.006384834238E-04  5.315011839648E-04
  3.218186103656E-04  1.699875262972E-04  7.100753736153E-05  1.739148524884E-05
  1.038915932677E-07  9.461841299827E-06  3.594288247844E-05  7.085693243819E-05
  1.068530615608E-04  1.382465288830E-04  1.611656703483E-04  1.735313125391E-04
  1.748924962757E-04  1.661507761226E-04  1.492107327031E-04  1.265963448829E-04
  1.010715253474E-04  7.529869610837E-05  5.156228756461E-05  3.157521221404E-05
  1.637656745309E-05  6.319009189404E-06  1.135342361881E-06  6.672371400102E-08
  2.030104686013E-06  5.800538832473E-06  1.018481824441E-05  1.416635314945E-05
  1.700674386924E-05  1.829635797944E-05  1.795351732753E-05  1.617868501568E-05
  1.337547155894E-05  1.005369858065E-05  6.730799856483E-06  3.846474286321E-06
  1.702049545175E-06  4.310855846709E-07  2.170035881027E-09  0.000000000000E+00
  0.000000000000E+00  0.000000000000E+00  0.000000000000E+00  0.000000000000E+00
  0.000000000000E+00  0.000000000000E+00  0.000000000000E+00  0.000000000000E+00
  0.000000000000E+00  0.000000000000E+00  0.000000000000E+00  0.000000000000E+00
  0.000000000000E+00  0.000000000000E+00  0.000000000000E+00  0.000000000000E+00
  0.000000000000E+00  0.000000000000E+00  0.000000000000E+00  0.000000000000E+00
  0.000000000000E+00  0.000000000000E+00  0.000000000000E+00  0.000000000000E+00
  0.000000000000E+00  0.000000000000E+00  0.000000000000E+00  0.000000000000E+00
  0.000000000000E+00  0.000000000000E+00  0.000000000000E+00  0.000000000000E+00
  0.000000000000E+00  0.000000000000E+00  0.000000000000E+00  0.000000000000E+00
  0.000000000000E+00  0.000000000000E+00  0.000000000000E+00  0.000000000000E+00
  0.000000000000E+00  0.000000000000E+00  0.000000000000E+00  0.000000000000E+00
  0.000000000000E+00  0.000000000000E+00  0.000000000000E+00  0.000000000000E+00
  0.000000000000E+00  0.000000000000E+00  0.000000000000E+00  0.000000000000E+00
  0.000000000000E+00  0.000000000000E+00  0.000000000000E+00  0.000000000000E+00
  0.000000000000E+00  0.000000000000E+00  0.000000000000E+00  0.000000000000E+00
  0.000000000000E+00  0.000000000000E+00  0.000000000000E+00  0.000000000000E+00
  0.000000000000E+00  0.000000000000E+00  0.000000000000E+00  0.000000000000E+00
  0.000000000000E+00  0.000000000000E+00  0.000000000000E+00  0.000000000000E+00
  0.000000000000E+00  0.000000000000E+00  0.000000000000E+00  0.000000000000E+00
  0.000000000000E+00  0.000000000000E+00  0.000000000000E+00  0.000000000000E+00
  0.000000000000E+00  0.000000000000E+00  0.000000000000E+00  0.000000000000E+00
  0.000000000000E+00  0.000000000000E+00  0.000000000000E+00  0.000000000000E+00
  0.000000000000E+00  0.000000000000E+00  0.000000000000E+00  0.000000000000E+00
  0.000000000000E+00  0.000000000000E+00  0.000000000000E+00  0.000000000000E+00
  0.000000000000E+00  0.000000000000E+00
</data>
</radfunc>
</pseudocore-charge>
<semilocal-potentials set="scalar_relativistic">
<slps n="3" l="s" rc="1.26204037057" eref="-4.21529358836">
<radfunc>
<data npts="290">
 -2.922286093262E+01 -2.922286129848E+01 -2.922286217547E+01 -2.922286363163E+01
 -2.922286569634E+01 -2.922286847900E+01 -2.922287211164E+01 -2.922287634301E+01
 -2.922288161882E+01 -2.922288722585E+01 -2.922289325173E+01 -2.922289922144E+01
 -2.922290527438E+01 -2.922290978399E+01 -2.922291194889E+01 -2.922291090533E+01
 -2.922290409360E+01 -2.922289113409E+01 -2.922286783813E+01 -2.922282908678E+01
 -2.922276753240E+01 -2.922269496232E+01 -2.922259385957E+01 -2.922245458339E+01
 -2.922226446859E+01 -2.922200693155E+01 -2.922166032858E+01 -2.922132528331E+01
 -2.922090960990E+01 -2.922039528258E+01 -2.921976047746E+01 -2.921897882195E+01
 -2.921801850752E+01 -2.921684124339E+01 -2.921540102619E+01 -2.921364269698E+01
 -2.921150025392E+01 -2.920889488506E+01 -2.920685511561E+01 -2.920453614336E+01
 -2.920190199344E+01 -2.919891237046E+01 -2.919552218631E+01 -2.919168104345E+01
 -2.918733267091E+01 -2.918241431001E+01 -2.917685604712E+01 -2.917058009097E+01
 -2.916349999252E+01 -2.915551980575E+01 -2.914653318880E+01 -2.913642244577E+01
 -2.912505751077E+01 -2.911229487799E+01 -2.909797648299E+01 -2.908192854494E+01
 -2.906396037993E+01 -2.904386320327E+01 -2.902140894079E+01 -2.899634907611E+01
 -2.896841356691E+01 -2.893730987015E+01 -2.890272212297E+01 -2.886431053272E+01
 -2.882171103452E+01 -2.877453527707E+01 -2.872237099607E+01 -2.869428297827E+01
 -2.866478282688E+01 -2.863381272337E+01 -2.860131359343E+01 -2.856722517408E+01
 -2.853148608794E+01 -2.849403392420E+01 -2.845480532578E+01 -2.841373608190E+01
 -2.837076122511E+01 -2.832581513209E+01 -2.827883162697E+01 -2.822974408652E+01
 -2.817848554600E+01 -2.812498880523E+01 -2.806918653406E+01 -2.801101137713E+01
 -2.795039605777E+01 -2.788727348149E+01 -2.782157683972E+01 -2.775323971504E+01
 -2.768219618918E+01 -2.760838095567E+01 -2.753172943921E+01 -2.745217792375E+01
 -2.736966369159E+01 -2.728412517550E+01 -2.719550212563E+01 -2.710373579270E+01
 -2.700876912829E+01 -2.691054700235E+01 -2.680901643746E+01 -2.670412685801E+01
 -2.659583035230E+01 -2.648408194311E+01 -2.636883986290E+01 -2.625006582702E+01
 -2.612772529865E+01 -2.600178773715E+01 -2.587222682163E+01 -2.573902064030E+01
 -2.560215183663E+01 -2.546160770313E+01 -2.531738021445E+01 -2.516946599265E+01
 -2.501786619914E+01 -2.486258634980E+01 -2.470363605262E+01 -2.454102866940E+01
 -2.437478090676E+01 -2.420491234406E+01 -2.403144490916E+01 -2.385440231575E+01
 -2.367380947835E+01 -2.348969192373E+01 -2.330207521943E+01 -2.311098444250E+01
 -2.291644371316E+01 -2.271847582088E+01 -2.251710197224E+01 -2.231234169318E+01
 -2.210421292117E+01 -2.189273232646E+01 -2.167791590580E+01 -2.145977989593E+01
 -2.123834205877E+01 -2.101362339431E+01 -2.078565034071E+01 -2.055445752388E+01
 -2.032009111982E+01 -2.008261289182E+01 -1.984210496085E+01 -1.959867535955E+01
 -1.935246440792E+01 -1.910365193117E+01 -1.885246531575E+01 -1.859918836847E+01
 -1.834417090456E+01 -1.808783894369E+01 -1.783070533922E+01 -1.757338060505E+01
 -1.731658363973E+01 -1.706115198122E+01 -1.680805116140E+01 -1.655838267327E+01
 -1.631339002160E+01 -1.607446230736E+01 -1.584313480675E+01 -1.562108605644E+01