<?xml version="1.0" encoding="UTF-8" ?>
<psml version="1.1" energy_unit="hartree" length_unit="bohr"
 uuid="37906860-be63-11e7-67a1-1447fd7f0c8e"
 xmlns="http://esl.cecam.org/PSML/ns/1.1">
<provenance creator="ONCVPSP-3.3.0+psml-3.3.0-73 (scalar-relativistic)"
 date="2017-10-31">
<annotation action="semilocal-pseudopotential-generation"
 action-cont="projectors-generation" />
<input-file name="oncvpsp-input">
<![CDATA[# atsym z nc nv iexc psfile
Cu 29 3 4 4 upf
# n l f
1 0 2.0
2 0 2.0
2 1 6.0
3 0 2.0
3 1 6.0
3 2 10.0
4 0 1.0
# lmax
2
# l rc ep ncon nbas qcut
0 1.2 0.0 4 8 9.6
1 1.3 0.0 4 8 10.0
2 1.6 0.0 4 7 10.0
# lloc lpopt rc5 dvloc0
4 5 1.2 0.0
# l nproj debl
0 2 1.5
1 2 1.5
2 2 2.0
# icmod fcfact
3 5 1.45
# epsh1 epsh2 depsh
-12.0 12.0 0.02
# rlmax drl
6.0 0.01
 0
]]>
</input-file>
</provenance>
<pseudo-atom-spec atomic-label="Cu" atomic-number="29" z-pseudo="19"
 flavor="Hamann&apos;s oncvpsp" relativity="scalar" spin-dft="no"
 core-corrections="yes">
<annotation pseudo-energy="-188.394049440" />
<exchange-correlation>
<annotation oncvpsp-xc-code="4" oncvpsp-xc-type="GGA -- Perdew-Burke-Ernzerhof" />
<libxc-info number-of-functionals="2">
<functional name="Perdew, Burke &amp; Ernzerhof (GGA)" type="exchange" id="101" />
<functional name="Perdew, Burke &amp; Ernzerhof (GGA)" type="correlation"
 id="130" />
</libxc-info>
</exchange-correlation>
<valence-configuration total-valence-charge="19">
<shell n="3" l="s" occupation="2" />
<shell n="3" l="p" occupation="6" />
<shell n="3" l="d" occupation="10" />
<shell n="4" l="s" occupation="1" />
</valence-configuration>
</pseudo-atom-spec>
<grid npts="457">
<annotation type="sampled from oncvpsp log grid"
 recipe="r(i:1..N) = r1*exp(a*(i-1)) + r=0; resampled"
 recipe-cont="r1: scale; a: step" scale="0.172413793103E-04"
 step="0.119285708653E-01" delta="0.500000000000E-02" rmax="44.1434196577" />
<grid-data>
  0.000000000000E+00  5.040759278960E-03  1.006852107514E-02  1.510438714353E-02
  2.011108069843E-02  2.522697322451E-02  3.053186590510E-02  3.565332260536E-02
  4.114017728858E-02  4.635229949226E-02  5.160548885826E-02  5.677275850950E-02
  6.245742807768E-02  6.789654638074E-02  7.293412198510E-02  7.834545986930E-02
  8.415829127808E-02  8.933043969595E-02  9.482045482488E-02  1.006478719214E-01
  1.068334268276E-01  1.120544760441E-01  1.175306828056E-01  1.232745168994E-01
  1.292990575229E-01  1.356180230659E-01  1.422458023490E-01  1.474283472209E-01
  1.527997115230E-01  1.583667746511E-01  1.641366666430E-01  1.701167773103E-01
  1.763147657031E-01  1.827385699191E-01  1.893964172706E-01  1.962968348216E-01
  2.034486603088E-01  2.108610534604E-01  2.159520827352E-01  2.211660298207E-01
  2.265058624447E-01  2.319746199876E-01  2.375754152126E-01  2.433114360375E-01
  2.491859473491E-01  2.552022928619E-01  2.613638970208E-01  2.676742669505E-01
  2.741369944517E-01  2.807557580458E-01  2.875343250680E-01  2.944765538125E-01
  3.015863957277E-01  3.088678976662E-01  3.163252041874E-01  3.239625599173E-01
  3.317843119640E-01  3.397949123920E-01  3.479989207568E-01  3.564010066996E-01
  3.650059526053E-01  3.738186563250E-01  3.828441339633E-01  3.920875227337E-01
  4.015540838826E-01  4.112492056839E-01  4.211784065059E-01  4.262325473840E-01
  4.313473379526E-01  4.365235060080E-01  4.417617880801E-01  4.470629295371E-01
  4.524276846915E-01  4.578568169078E-01  4.633510987107E-01  4.689113118952E-01
  4.745382476380E-01  4.802327066096E-01  4.859954990890E-01  4.918274450780E-01
  4.977293744190E-01  5.037021269120E-01  5.097465524349E-01  5.158635110642E-01
  5.220538731969E-01  5.283185196753E-01  5.346583419114E-01  5.410742420143E-01
  5.475671329185E-01  5.541379385135E-01  5.607875937757E-01  5.675170449010E-01
  5.743272494398E-01  5.812191764331E-01  5.881938065503E-01  5.952521322289E-01
  6.023951578156E-01  6.096238997094E-01  6.169393865059E-01  6.243426591440E-01
  6.318347710537E-01  6.394167883064E-01  6.470897897661E-01  6.548548672432E-01
  6.627131256502E-01  6.706656831580E-01  6.787136713559E-01  6.868582354121E-01
  6.951005342371E-01  7.034417406479E-01  7.118830415357E-01  7.204256380341E-01
  7.290707456905E-01  7.378195946388E-01  7.466734297745E-01  7.556335109318E-01
  7.647011130630E-01  7.738775264197E-01  7.831640567368E-01  7.925620254176E-01
  8.020727697226E-01  8.116976429593E-01  8.214380146748E-01  8.312952708509E-01
  8.412708141011E-01  8.513660638703E-01  8.615824566368E-01  8.719214461164E-01
  8.823845034698E-01  8.929731175114E-01  9.036887949216E-01  9.145330604606E-01
  9.255074571862E-01  9.366135466724E-01  9.478529092325E-01  9.592271441432E-01
  9.707378698730E-01  9.823867243114E-01  9.941753650032E-01  1.006105469383E+00
  1.018178735016E+00  1.030396879836E+00  1.042761642394E+00  1.055274782103E+00
  1.067938079488E+00  1.080753336442E+00  1.093722376479E+00  1.106847044997E+00
  1.120129209537E+00  1.133570760051E+00  1.147173609172E+00  1.160939692482E+00
  1.174870968792E+00  1.188969420417E+00  1.203237053462E+00  1.217675898104E+00
  1.232288008881E+00  1.247075464988E+00  1.262040370567E+00  1.277184855014E+00
  1.292511073274E+00  1.308021206154E+00  1.323717460628E+00  1.339602070155E+00
  1.355677294997E+00  1.371945422537E+00  1.388408767607E+00  1.405069672819E+00
  1.421930508893E+00  1.438993674999E+00  1.456261599099E+00  1.473736738288E+00
  1.491421579148E+00  1.509318638098E+00  1.527430461755E+00  1.545759627296E+00
  1.564308742823E+00  1.583080447737E+00  1.602077413110E+00  1.621302342067E+00
  1.640757970172E+00  1.660447065814E+00  1.680372430604E+00  1.700536899771E+00
  1.720943342569E+00  1.741594662679E+00  1.762493798632E+00  1.783643724215E+00
  1.805047448906E+00  1.826708018293E+00  1.848628514512E+00  1.870812056686E+00
  1.893261801367E+00  1.915980942983E+00  1.938972714299E+00  1.962240386870E+00
  1.985787271513E+00  2.009616718771E+00  2.033732119396E+00  2.058136904829E+00
  2.082834547687E+00  2.107828562259E+00  2.133122505006E+00  2.158719975066E+00
  2.184624614767E+00  2.210840110144E+00  2.237370191466E+00  2.264218633764E+00
  2.291389257369E+00  2.318885928457E+00  2.346712559599E+00  2.374873110314E+00
  2.403371587638E+00  2.432212046689E+00  2.461398591250E+00  2.490935374345E+00
  2.520826598837E+00  2.551076518023E+00  2.581689436239E+00  2.612669709474E+00
  2.644021745988E+00  2.675750006939E+00  2.707859007023E+00  2.740353315107E+00
  2.773237554888E+00  2.806516405547E+00  2.840194602413E+00  2.874276937642E+00
  2.908768260894E+00  2.943673480025E+00  2.978997561785E+00  3.014745532527E+00
  3.050922478917E+00  3.087533548664E+00  3.124583951248E+00  3.162078958663E+00
  3.200023906167E+00  3.238424193041E+00  3.277285283357E+00  3.316612706758E+00
  3.356412059239E+00  3.396689003950E+00  3.437449271997E+00  3.478698663261E+00
  3.520443047220E+00  3.562688363787E+00  3.605440624152E+00  3.648705911642E+00
  3.692490382582E+00  3.736800267173E+00  3.781641870379E+00  3.827021572823E+00
  3.872945831697E+00  3.919421181678E+00  3.966454235858E+00  4.014051686688E+00
  4.062220306928E+00  4.110966950611E+00  4.160298554019E+00  4.210222136667E+00
  4.260744802307E+00  4.311873739935E+00  4.363616224814E+00  4.415979619512E+00
  4.468971374946E+00  4.522599031445E+00  4.576870219822E+00  4.631792662460E+00
  4.687374174410E+00  4.743622664503E+00  4.800546136477E+00  4.858152690114E+00
  4.916450522396E+00  4.975447928665E+00  5.035153303809E+00  5.095575143454E+00
  5.156722045176E+00  5.218602709718E+00  5.281225942234E+00  5.344600653541E+00
  5.408735861384E+00  5.473640691720E+00  5.539324380021E+00  5.605796272581E+00
  5.673065827852E+00  5.741142617786E+00  5.810036329200E+00  5.879756765150E+00
  5.950313846332E+00  6.021717612488E+00  6.093978223838E+00  6.167105962524E+00
  6.241111234074E+00  6.316004568883E+00  6.391796623710E+00  6.468498183194E+00
  6.546120161393E+00  6.624673603329E+00  6.704169686569E+00  6.784619722808E+00
  6.866035159482E+00  6.948427581396E+00  7.031808712372E+00  7.116190416921E+00
  7.201584701924E+00  7.288003718347E+00  7.375459762967E+00  7.463965280123E+00
  7.553532863484E+00  7.644175257846E+00  7.735905360940E+00  7.828736225271E+00
  7.922681059975E+00  8.017753232694E+00  8.113966271487E+00  8.211333866745E+00
  8.309869873145E+00  8.409588311623E+00  8.510503371363E+00  8.612629411819E+00
  8.715980964761E+00  8.820572736338E+00  8.926419609174E+00  9.033536644484E+00
  9.141939084218E+00  9.251642353229E+00  9.362662061467E+00  9.475014006205E+00
  9.588714174279E+00  9.703778744371E+00  9.820224089303E+00  9.938066778375E+00
  1.005732357972E+01  1.017801146267E+01  1.030014760022E+01  1.042374937143E+01
  1.054883436388E+01  1.067542037625E+01  1.080352542077E+01  1.093316772581E+01
  1.106436573852E+01  1.119713812739E+01  1.133150378492E+01  1.146748183033E+01
  1.160509161230E+01  1.174435271165E+01  1.188528494419E+01  1.202790836352E+01
  1.217224326388E+01  1.231831018304E+01  1.246612990524E+01  1.261572346410E+01
  1.276711214567E+01  1.292031749142E+01  1.307536130132E+01  1.323226563693E+01
  1.339105282458E+01  1.355174545847E+01  1.371436640397E+01  1.387893880082E+01
  1.404548606643E+01  1.421403189923E+01  1.438460028202E+01  1.455721548540E+01
  1.473190207123E+01  1.490868489608E+01  1.508758911484E+01  1.526864018421E+01
  1.545186386642E+01  1.563728623282E+01  1.582493366762E+01  1.601483287163E+01
  1.620701086609E+01  1.640149499648E+01  1.659831293644E+01  1.679749269167E+01
  1.699906260397E+01  1.720305135522E+01  1.740948797149E+01  1.761840182714E+01
  1.782982264907E+01  1.804378052086E+01  1.826030588711E+01  1.847942955775E+01
  1.870118271245E+01  1.892559690500E+01  1.915270406786E+01  1.938253651667E+01
  1.961512695487E+01  1.985050847833E+01  2.008871458007E+01  2.032977915503E+01
  2.057373650489E+01  2.082062134295E+01  2.107046879906E+01  2.132331442465E+01
  2.157919419775E+01  2.183814452812E+01  2.210020226246E+01  2.236540468961E+01
  2.263378954588E+01  2.290539502043E+01  2.318025976068E+01  2.345842287781E+01
  2.373992395234E+01  2.402480303977E+01  2.431310067625E+01  2.460485788436E+01
  2.490011617897E+01  2.519891757312E+01  2.550130458400E+01  2.580732023901E+01
  2.611700808187E+01  2.643041217886E+01  2.674757712500E+01  2.706854805050E+01
  2.739337062711E+01  2.772209107463E+01  2.805475616753E+01  2.839141324154E+01
  2.873211020044E+01  2.907689552284E+01  2.942581826912E+01  2.977892808835E+01
  3.013627522541E+01  3.049791052811E+01  3.086388545445E+01  3.123425207990E+01
  3.160906310486E+01  3.198837186212E+01  3.237223232447E+01  3.276069911236E+01
  3.315382750171E+01  3.355167343173E+01  3.395429351291E+01  3.436174503506E+01
  3.477408597549E+01  3.519137500719E+01  3.561367150728E+01  3.604103556537E+01
  3.647352799215E+01  3.691121032806E+01  3.735414485199E+01  3.780239459022E+01
  3.825602332530E+01  3.871509560520E+01  3.917967675246E+01  3.964983287349E+01
  4.012563086798E+01  4.060713843839E+01  4.109442409965E+01  4.158755718885E+01
  4.208660787511E+01  4.259164716962E+01  4.310274693565E+01  4.361997989888E+01
  4.414341965767E+01
</grid-data>
</grid>
<valence-charge total-charge="19" is-unscreening-charge="yes"
 rescaled-to-z-pseudo="no">
<radfunc>
<data npts="457">
  1.811730301247E+01  1.812760020008E+01  1.815837665853E+01  1.820970491083E+01
  1.828103252195E+01  1.837475656111E+01  1.849410083130E+01  1.863061447893E+01
  1.879994000132E+01  1.898273510175E+01  1.918843161696E+01  1.941159368797E+01
  1.968071731284E+01  1.996110794722E+01  2.024051278173E+01  2.056147867375E+01
  2.092992677003E+01  2.127803016293E+01  2.166802450753E+01  2.210462480228E+01
  2.259298548154E+01  2.302469453158E+01  2.349619294751E+01  2.401074924985E+01
  2.457181151650E+01  2.518299535840E+01  2.584806479433E+01  2.638456250868E+01
  2.695522516584E+01  2.756173785602E+01  2.820578498067E+01  2.888903226937E+01
  2.961310509842E+01  3.037956258238E+01  3.118986686066E+01  3.204534695538E+01
  3.294715653503E+01  3.389622488700E+01  3.455552563538E+01  3.523623522396E+01
  3.593838573319E+01  3.666192133218E+01  3.740668712004E+01  3.817241708756E+01
  3.895872117908E+01  3.976507144340E+01  4.059078727459E+01  4.143501975779E+01
  4.229673515302E+01  4.317469757118E+01  4.406745092154E+01  4.497330023997E+01
  4.589029254130E+01  4.681619737932E+01  4.774848734280E+01  4.868431876738E+01
  4.962051299978E+01  5.055353861403E+01  5.147949504776E+01  5.239409820022E+01
  5.329266861163E+01  5.417012292431E+01  5.502096940775E+01  5.583930841055E+01
  5.661883867841E+01  5.735287054509E+01  5.803434705855E+01  5.835307854955E+01
  5.865587414070E+01  5.894176350540E+01  5.920976089070E+01  5.945886700755E+01
  5.968807112051E+01  5.989635334368E+01  6.008268714940E+01  6.024604209504E+01
  6.038538677262E+01  6.049969198466E+01  6.058793414870E+01  6.064909893132E+01
  6.068218511094E+01  6.068620866718E+01  6.066020709234E+01  6.060324391863E+01
  6.051441345246E+01  6.039284570467E+01  6.023771150284E+01  6.004822776902E+01
  5.982366294345E+01  5.956334253127E+01  5.926665474648E+01  5.893305622360E+01
  5.856207776433E+01  5.815333008276E+01  5.770650950946E+01  5.722140361099E+01
  5.669789667813E+01  5.613597503288E+01  5.553573210104E+01  5.489737319451E+01
  5.422121994487E+01  5.350771432764E+01  5.275742221509E+01  5.197103639447E+01
  5.114937898775E+01  5.029340320986E+01  4.940419440298E+01  4.848297028678E+01
  4.753108036744E+01  4.655000445228E+01  4.554135022199E+01  4.450684981878E+01
  4.344835541619E+01  4.236783374504E+01  4.126735955984E+01  4.014910804093E+01
  3.901534614005E+01  3.786842288965E+01  3.671075871097E+01  3.554483376997E+01
  3.437317544620E+01  3.319834499484E+01  3.202292349802E+01  3.084949721715E+01
  2.968064247269E+01  2.851891019195E+01  2.736681027829E+01  2.622679596615E+01
  2.510124833559E+01  2.399246116664E+01  2.290262631791E+01  2.183381981475E+01
  2.078798883021E+01  1.976693973578E+01  1.877232738986E+01  1.780564581855E+01
  1.686822042647E+01  1.596120185520E+01  1.508556158318E+01  1.424208933485E+01
  1.343139233774E+01  1.265389643579E+01  1.190984903569E+01  1.119932383086E+01
  1.052222721607E+01  9.878306275899E+00  9.267158201445E+00  8.688240965212E+00
  8.140885062174E+00  7.624306108198E+00  7.137618074846E+00  6.679846932785E+00
  6.249944475017E+00  5.846802095693E+00  5.469264310595E+00  5.116142134587E+00
  4.786226989476E+00  4.478304264957E+00  4.191163171565E+00  3.923605646546E+00
  3.674454147173E+00  3.442558373427E+00  3.226800493786E+00  3.026097842079E+00
  2.839404367560E+00  2.665715150734E+00  2.504070136361E+00  2.353557260149E+00
  2.213314957705E+00  2.082534096853E+00  1.960459370549E+00  1.846390181926E+00
  1.739681046171E+00  1.639741526705E+00  1.546035716347E+00  1.458081268342E+00
  1.375447978076E+00  1.297755914306E+00  1.224673099297E+00  1.155910822890E+00
  1.091211078101E+00  1.030329906884E+00  9.730369255186E-01  9.191146416513E-01
  8.683579065568E-01  8.205733715103E-01  7.755789504859E-01  7.332032911464E-01
  6.932852558400E-01  6.556734140973E-01  6.202255478983E-01  5.868081707839E-01
  5.552960616907E-01  5.255718142199E-01  4.975254018837E-01  4.710537597296E-01
  4.460603826054E-01  4.224549402078E-01  4.001529089457E-01  3.790752205538E-01
  3.591479273038E-01  3.403018835839E-01  3.224724435538E-01  3.055991745213E-01
  2.896255856426E-01  2.744988715049E-01  2.601696701196E-01  2.465918348264E-01
  2.337222195896E-01  2.215204771543E-01  2.099488695197E-01  1.989720901829E-01
  1.885570976053E-01  1.786729593576E-01  1.692907064047E-01  1.603831969997E-01
  1.519249896696E-01  1.438922247855E-01  1.362625142277E-01  1.290148386684E-01
  1.221294520166E-01  1.155877925822E-01  1.093724005403E-01  1.034668412907E-01
  9.785563433018E-02  9.252418727304E-02  8.745873467322E-02  8.264628132268E-02
  7.807454971691E-02  7.373193139780E-02  6.960744190101E-02  6.569067905226E-02
  6.197178437305E-02  5.844140737218E-02  5.509067251399E-02  5.191114866882E-02
  4.889482086416E-02  4.603406416789E-02  4.332161954657E-02  4.075057155308E-02
  3.831432770784E-02  3.600659944772E-02  3.382138452536E-02  3.175295074986E-02
  2.979582096725E-02  2.794475918605E-02  2.619475775953E-02  2.454102554213E-02
  2.297897694343E-02  2.150422180535E-02  2.011255603771E-02  1.879995294693E-02
  1.756255519894E-02  1.639666736053E-02  1.529874896714E-02  1.426540806840E-02
  1.329339520616E-02  1.237959778267E-02  1.152103478000E-02  1.071485179451E-02
  9.958316353239E-03  9.248813481927E-03  8.583841497001E-03  7.961007996712E-03
  7.378026029006E-03  6.832710416237E-03  6.322974219166E-03  5.846825324871E-03
  5.402363145303E-03  4.987775415121E-03  4.601335079266E-03  4.241397262326E-03
  3.906396313284E-03  3.594842920520E-03  3.305321293150E-03  3.036486405823E-03
  2.787061304934E-03  2.555834475034E-03  2.341657264750E-03  2.143441372093E-03
  1.960156389328E-03  1.790827407911E-03  1.634532684124E-03  1.490401366119E-03
  1.357611283101E-03  1.235386797311E-03  1.122996719328E-03  1.019752287086E-03
  9.250052087915E-04  8.381457696863E-04  7.586010024355E-04  6.858329206322E-04
  6.193368147332E-04  5.586396095141E-04  5.032982819566E-04  4.528983383168E-04
  4.070523489948E-04  3.653985397230E-04  3.275994375211E-04  2.933405698234E-04
  2.623292151725E-04  2.342932038818E-04  2.089797671068E-04  1.861544328106E-04
  1.655999671762E-04  1.471153600875E-04  1.305148533819E-04  1.156270106506E-04
  1.022938274440E-04  9.036988080807E-05  7.972151713957E-05  7.022607740804E-05
  6.177115883197E-05  5.425391213485E-05  4.758037352921E-05  4.166483059124E-05
  3.642922119344E-05  3.180256465914E-05  2.772042429241E-05  2.412440042073E-05
  2.096165306762E-05  1.818445334916E-05  1.574976266417E-05  1.361883872283E-05
  1.175686743547E-05  1.013261966128E-05  8.718131778976E-06  7.488409365961E-06
  6.421150254385E-06  5.496499921292E-06  4.696791714528E-06  4.006367254397E-06
  3.411372375513E-06  2.899566375004E-06  2.460125914640E-06  2.083505070208E-06
  1.761315027931E-06  1.486199441347E-06  1.251719261941E-06  1.052249358265E-06
  8.828853005879E-07  7.393595001408E-07  6.179659341553E-07  5.154927304294E-07
  4.291619278178E-07  3.565757714019E-07  2.956689429112E-07  2.446661679430E-07
  2.020446814308E-07  1.665010714471E-07  1.369220586170E-07  1.123588040368E-07
  9.200437252134E-08  7.517401018013E-08  6.128792568226E-08  4.985629309796E-08
  4.046622088839E-08  3.277045647305E-08  2.647761886554E-08  2.134377317879E-08
  1.716518041696E-08  1.377207395959E-08  1.102333057841E-08  8.801918788193E-09
  7.011020903023E-09  5.570737435722E-09  4.415293526055E-09  3.490677001210E-09
  2.752646544354E-09  2.165056356237E-09  1.698450776414E-09  1.328888165248E-09
  9.865312693319E-10  7.683805221888E-10  5.968307355180E-10  4.622977835658E-10
  3.570873791291E-10  2.750396529614E-10  2.112370559379E-10  1.617649942820E-10
  1.235162486657E-10  9.403163788729E-11  7.137059546289E-11  5.400635840191E-11
  4.074134455596E-11  3.063903868612E-11  2.296933592380E-11  1.716482065933E-11
  1.278590320933E-11  9.493108272942E-12  7.025119002573E-12  5.181437881866E-12
  3.808738658280E-12  2.790159330488E-12  2.036930661458E-12  1.481853022196E-12
  1.074230949980E-12  7.759533436248E-13  5.584708541281E-13  4.004734006688E-13
  2.861120593644E-13  2.036426791409E-13  1.443950070828E-13  1.019921218640E-13
  7.176162232996E-14  5.029315561718E-14  3.510719527204E-14  2.440806414950E-14
  1.690050083012E-14  1.165396413970E-14  8.002657116121E-15  5.472168629159E-15
  3.725868302302E-15  2.525899447640E-15  1.704914634603E-15  1.145682973927E-15
  7.664405210891E-16  5.104124866922E-16  3.383524526907E-16  2.232536950229E-16
  1.466172465541E-16  9.583056131748E-17  6.233482766857E-17  4.034968313269E-17
  2.599002627641E-17  1.665730275838E-17  1.062204315122E-17  6.738926489848E-18
  4.253300337875E-18  2.670466101669E-18  1.667809574895E-18  1.036040150958E-18
  6.401024067479E-19  3.933116044974E-19  2.403310105839E-19  1.460291579922E-19
  8.822601232138E-20  5.299698668805E-20  3.164995982303E-20  0.000000000000E+00
  0.000000000000E+00  0.000000000000E+00  0.000000000000E+00  0.000000000000E+00
  0.000000000000E+00  0.000000000000E+00  0.000000000000E+00  0.000000000000E+00
  0.000000000000E+00  0.000000000000E+00  0.000000000000E+00  0.000000000000E+00
  0.000000000000E+00  0.000000000000E+00  0.000000000000E+00  0.000000000000E+00
  0.000000000000E+00
</data>
</radfunc>
</valence-charge>
<pseudocore-charge matching-radius="0.369386024037"
 number-of-continuous-derivatives="4">
<annotation model-charge-form="Teter function with specified parameters" />
<radfunc>
<data npts="290">
  2.829096215723E+02  2.828304625576E+02  2.825939251033E+02  2.821996176680E+02
  2.816520559969E+02  2.809332389853E+02  2.800190371919E+02  2.789748371752E+02
  2.776819123880E+02  2.762889362721E+02  2.747249108560E+02  2.730322325981E+02
  2.709966671684E+02  2.688825307332E+02  2.667825607842E+02  2.643784982763E+02
  2.616296674260E+02  2.590432691165E+02  2.561578730286E+02  2.529429673714E+02
  2.493660111908E+02  2.462207129370E+02  2.428033736653E+02  2.390951400463E+02
  2.350768342859E+02  2.307291886006E+02  2.260331408484E+02  2.222713092290E+02
  2.182956302936E+02  2.140990973227E+02  2.096752861976E+02  2.050185127933E+02
  2.001240084682E+02  1.949881139443E+02  1.896084914264E+02  1.839843542337E+02
  1.781167124897E+02  1.720086325287E+02  1.678055612599E+02  1.635002002054E+02
  1.590953281852E+02  1.545943101388E+02  1.500011320685E+02  1.453204344313E+02
  1.405575433256E+02  1.357184987376E+02  1.308100790368E+02  1.258398208315E+02
  1.208160332220E+02  1.157478054264E+02  1.106450066925E+02  1.055182773732E+02
  1.003790100167E+02  9.523931932111E+01  9.011199983773E+01  8.501047036470E+01
  7.994870408218E+01  7.494114362884E+01  7.000260052447E+01  6.514813860523E+01
  6.039294146179E+01  5.575216425989E+01  5.124077077742E+01  4.687335701024E+01
  4.266396327650E+01  3.862587737461E+01  3.477143201140E+01  3.291661700721E+01
  3.111180039316E+01  2.935816454299E+01  2.765679453898E+01  2.600867238857E+01
  2.441467150052E+01  2.287555146945E+01  2.139195321907E+01  1.996439455461E+01
  1.859326617556E+01  1.727882819936E+01  1.602120724567E+01  1.482039412979E+01
  1.367624221144E+01  1.258846644235E+01  1.155664315298E+01  1.058021061411E+01
  9.658470404372E+00  8.790589609053E+00  7.975603869089E+00  7.212421291909E+00
  6.499827228058E+00  5.836489908891E+00  5.220966931565E+00  4.651712567876E+00
  4.127085863438E+00  3.645359483309E+00  3.204729249635E+00  2.803324306296E+00
  2.439217835101E+00  2.110438238004E+00  1.814980690204E+00  1.550818960166E+00
  1.315917384697E+00  1.108242880496E+00  9.257768682187E-01  7.665269814037E-01
  6.285384305984E-01  5.099048930926E-01  4.087788007992E-01  3.233809032388E-01
  2.520089893363E-01  1.930456608563E-01  1.449650617927E-01  1.063384817987E-01
  7.583876766888E-02  5.224349475745E-02  3.443686977579E-02  2.141035730998E-02
  1.226204424344E-02  6.194778595155E-03  2.513141579524E-03  6.193334054562E-04
  8.073879154953E-06  2.606376641849E-04  1.038160498097E-03  2.074366209293E-03
  3.167874512358E-03  4.174255848881E-03  4.998001642674E-03  5.584576028701E-03
  5.912708304559E-03  5.987074103550E-03  5.831497822570E-03  5.482789545833E-03
  4.985307140900E-03  4.386309075296E-03  3.732136654895E-03  3.065236773959E-03
  2.422008920732E-03  1.831434164424E-03  1.314420207008E-03  8.837762976048E-04
  5.447157399091E-04  2.957725644397E-04  1.300131599766E-04  3.642347909936E-05
  1.357785416471E-06  9.945434973074E-06  4.736723287397E-05  9.993156549415E-05
  1.559016450164E-04  2.060475233224E-04  2.439186610685E-04  2.658534058969E-04
  2.707594724360E-04  2.597133511531E-04  2.354357069554E-04  2.017038124977E-04
  1.627608381479E-04  1.227757401487E-04  8.539728871294E-05  5.343253118922E-05
  2.866501244224E-05  1.181282893866E-05  2.612528777460E-06  3.301643329339E-09
  2.377873086365E-06  7.862687017690E-06  1.459053238665E-05  2.093346385491E-05
  2.567194299960E-05  2.808647000639E-05  2.796922203888E-05  2.556391711602E-05
  2.145093480855E-05  1.640057670889E-05  1.121959123139E-05  6.614583568770E-06
  3.091083711303E-06  8.997355773728E-07  3.253209182135E-08  0.000000000000E+00
  0.000000000000E+00  0.000000000000E+00  0.000000000000E+00  0.000000000000E+00
  0.000000000000E+00  0.000000000000E+00  0.000000000000E+00  0.000000000000E+00
  0.000000000000E+00  0.000000000000E+00  0.000000000000E+00  0.000000000000E+00
  0.000000000000E+00  0.000000000000E+00  0.000000000000E+00  0.000000000000E+00
  0.000000000000E+00  0.000000000000E+00  0.000000000000E+00  0.000000000000E+00
  0.000000000000E+00  0.000000000000E+00  0.000000000000E+00  0.000000000000E+00
  0.000000000000E+00  0.000000000000E+00  0.000000000000E+00  0.000000000000E+00
  0.000000000000E+00  0.000000000000E+00  0.000000000000E+00  0.000000000000E+00
  0.000000000000E+00  0.000000000000E+00  0.000000000000E+00  0.000000000000E+00
  0.000000000000E+00  0.000000000000E+00  0.000000000000E+00  0.000000000000E+00
  0.000000000000E+00  0.000000000000E+00  0.000000000000E+00  0.000000000000E+00
  0.000000000000E+00  0.000000000000E+00  0.000000000000E+00  0.000000000000E+00
  0.000000000000E+00  0.000000000000E+00  0.000000000000E+00  0.000000000000E+00
  0.000000000000E+00  0.000000000000E+00  0.000000000000E+00  0.000000000000E+00
  0.000000000000E+00  0.000000000000E+00  0.000000000000E+00  0.000000000000E+00
  0.000000000000E+00  0.000000000000E+00  0.000000000000E+00  0.000000000000E+00
  0.000000000000E+00  0.000000000000E+00  0.000000000000E+00  0.000000000000E+00
  0.000000000000E+00  0.000000000000E+00  0.000000000000E+00  0.000000000000E+00
  0.000000000000E+00  0.000000000000E+00  0.000000000000E+00  0.000000000000E+00
  0.000000000000E+00  0.000000000000E+00  0.000000000000E+00  0.000000000000E+00
  0.000000000000E+00  0.000000000000E+00  0.000000000000E+00  0.000000000000E+00
  0.000000000000E+00  0.000000000000E+00  0.000000000000E+00  0.000000000000E+00
  0.000000000000E+00  0.000000000000E+00  0.000000000000E+00  0.000000000000E+00
  0.000000000000E+00  0.000000000000E+00  0.000000000000E+00  0.000000000000E+00
  0.000000000000E+00  0.000000000000E+00  0.000000000000E+00  0.000000000000E+00
  0.000000000000E+00  0.000000000000E+00  0.000000000000E+00  0.000000000000E+00
  0.000000000000E+00  0.000000000000E+00  0.000000000000E+00  0.000000000000E+00
  0.000000000000E+00  0.000000000000E+00
</data>
</radfunc>
</pseudocore-charge>
<semilocal-potentials set="scalar_relativistic">
<slps n="3" l="s" rc="1.20323705346" eref="-4.21529358836">
<radfunc>
<data npts="290">
 -2.824668616909E+01 -2.824694695055E+01 -2.824772551532E+01 -2.824902567242E+01
 -2.825083627137E+01 -2.825322219643E+01 -2.825627140315E+01 -2.825977425494E+01
 -2.826414081743E+01 -2.826888120987E+01 -2.827424754851E+01 -2.828010686571E+01
 -2.828722299292E+01 -2.829469322002E+01 -2.830219207500E+01 -2.831087129788E+01
 -2.832091628927E+01 -2.833048312834E+01 -2.834128501235E+01 -2.835347701691E+01
 -2.836723091574E+01 -2.837948503603E+01 -2.839296415995E+01 -2.840777990407E+01
 -2.842405025205E+01 -2.844189869777E+01 -2.846145292668E+01 -2.847731618922E+01
 -2.849426692586E+01 -2.851235909610E+01 -2.853164476739E+01 -2.855217289964E+01
 -2.857398787461E+01 -2.859712772974E+01 -2.862162205079E+01 -2.864748947123E+01
 -2.867473471983E+01 -2.870334515028E+01 -2.872316139354E+01 -2.874355342740E+01
 -2.876449904459E+01 -2.878596939694E+01 -2.880792813761E+01 -2.883033047770E+01
 -2.885312215061E+01 -2.887623827735E+01 -2.889960212587E+01 -2.892312375725E+01
 -2.894669855302E+01 -2.897020561487E+01 -2.899350603537E+01 -2.901644103172E+01
 -2.903882994277E+01 -2.906046809030E+01 -2.908112451121E+01 -2.910053957559E+01
 -2.911842251854E+01 -2.913444893214E+01 -2.914825829304E+01 -2.915945164109E+01
 -2.916758958064E+01 -2.917219084821E+01 -2.917273177716E+01 -2.916864708040E+01
 -2.915933244595E+01 -2.914414945691E+01 -2.912243325307E+01 -2.910891273650E+01
 -2.909350307901E+01 -2.907611885240E+01 -2.905667536332E+01 -2.903508911587E+01
 -2.901127824947E+01 -2.898516292994E+01 -2.895666567099E+01 -2.892571156412E+01
 -2.889222839799E+01 -2.885614665326E+01 -2.881739936655E+01 -2.877592186579E+01
 -2.873165138968E+01 -2.868452661360E+01 -2.863448711354E+01 -2.858147280606E+01
 -2.852542340587E+01 -2.846627794243E+01 -2.840397437292E+01 -2.833844932190E+01
 -2.826963796833E+01 -2.819747409020E+01 -2.812189026640E+01 -2.804281822621E+01
 -2.796018932952E+01 -2.787393515555E+01 -2.778398817499E+01 -2.769028247867E+01
 -2.759275453582E+01 -2.749134395476E+01 -2.738599421921E+01 -2.727665337356E+01
 -2.716327463079E+01 -2.704581687762E+01 -2.692424505326E+01 -2.679853038163E+01
 -2.666865044181E+01 -2.653458906850E+01 -2.639633608228E+01 -2.625388685868E+01
 -2.610724175406E+01 -2.595640541424E+01 -2.580138599841E+01 -2.564219435433E+01
 -2.547884318259E+01 -2.531134622602E+01 -2.513971751707E+01 -2.496397071092E+01
 -2.478411852668E+01 -2.460017231348E+01 -2.441214175375E+01 -2.422003471324E+01
 -2.402385724557E+01 -2.382361376018E+01 -2.361930736469E+01 -2.341094039648E+01
 -2.319851516361E+01 -2.298203492067E+01 -2.276150511155E+01 -2.253693491684E+01
 -2.230833914939E+01 -2.207574054569E+01 -2.183917250455E+01 -2.159868232587E+01
 -2.135433500185E+01 -2.110621761016E+01 -2.085444435257E+01 -2.059916227283E+01
 -2.034055767436E+01 -2.007886323956E+01 -1.981436582941E+01 -1.954741491250E+01
 -1.927843153738E+01 -1.900791772032E+01 -1.873646607305E+01 -1.846476944175E+01
 -1.819363027167E+01 -1.792396935266E+01 -1.765683354338E+01 -1.739340202021E+01
 -1.713499055645E+01 -1.688305331570E+01 -1.663918164832E+01 -1.640509942077E+01
 -1.618265449441E+01 -1.597380602582E+01 -1.578060866458E+01 -1.559689288434E+01