<?xml version="1.0" encoding="UTF-8" ?>
<psml version="1.1" energy_unit="hartree" length_unit="bohr"
 uuid="1af31ef0-be63-11e7-690c-1043a3e41a8b"
 xmlns="http://esl.cecam.org/PSML/ns/1.1">
<provenance creator="ONCVPSP-3.3.0+psml-3.3.0-73 (scalar-relativistic)"
 date="2017-10-31">
<annotation action="semilocal-pseudopotential-generation"
 action-cont="projectors-generation" />
<input-file name="oncvpsp-input">
<![CDATA[# atsym z nc nv iexc psfile
Fe 26 3 4 4 upf
# n l f
1 0 2.0
2 0 2.0
2 1 6.0
3 0 2.0
3 1 6.0
3 2 6.0
4 0 2.0
# lmax
2
# l rc ep ncon nbas qcut
0 1.1 0.0 3 7 10.3
1 1.1 0.0 3 7 9.2
2 1.35 0.0 3 7 10.8
# lloc lpopt rc5 dvloc0
4 5 1.1 0.0
# l nproj debl
0 2 1.0
1 2 0.8
2 2 0.8
# icmod fcfact
3 3.0 1.7
# epsh1 epsh2 depsh
-24.0 12.0 0.02
# rlmax drl
6.0 0.01
 0
]]>
</input-file>
</provenance>
<pseudo-atom-spec atomic-label="Fe" atomic-number="26" z-pseudo="16"
 flavor="Hamann&apos;s oncvpsp" relativity="scalar" spin-dft="no"
 core-corrections="yes">
<annotation pseudo-energy="-122.683177002" />
<exchange-correlation>
<annotation oncvpsp-xc-code="4" oncvpsp-xc-type="GGA -- Perdew-Burke-Ernzerhof" />
<libxc-info number-of-functionals="2">
<functional name="Perdew, Burke &amp; Ernzerhof (GGA)" type="exchange" id="101" />
<functional name="Perdew, Burke &amp; Ernzerhof (GGA)" type="correlation"
 id="130" />
</libxc-info>
</exchange-correlation>
<valence-configuration total-valence-charge="16">
<shell n="3" l="s" occupation="2" />
<shell n="3" l="p" occupation="6" />
<shell n="3" l="d" occupation="6" />
<shell n="4" l="s" occupation="2" />
</valence-configuration>
</pseudo-atom-spec>
<grid npts="457">
<annotation type="sampled from oncvpsp log grid"
 recipe="r(i:1..N) = r1*exp(a*(i-1)) + r=0; resampled"
 recipe-cont="r1: scale; a: step" scale="0.192307692308E-04"
 step="0.119285708653E-01" delta="0.500000000000E-02" rmax="44.2248135897" />
<grid-data>
  0.000000000000E+00  5.050053692967E-03  1.008708593772E-02  1.513223739776E-02
  2.014816255451E-02  2.527348802918E-02  3.058816214668E-02  3.571906205505E-02
  4.072730601400E-02  4.588712082187E-02  5.108759065353E-02  5.620300303659E-02
  6.183062285620E-02  6.721515569429E-02  7.306860171076E-02  7.848991730107E-02
  8.431346671058E-02  8.949515180459E-02  9.499528970881E-02  1.008334516999E-01
  1.070304118539E-01  1.122610879123E-01  1.177473919885E-01  1.235018168622E-01
  1.295374658469E-01  1.358680826271E-01  1.425080825541E-01  1.477001832717E-01
  1.530814515745E-01  1.586587795431E-01  1.644393103617E-01  1.704304474680E-01
  1.766398640339E-01  1.830755127941E-01  1.897456362307E-01  1.966587771303E-01
  2.038237895251E-01  2.112498500326E-01  2.163502664118E-01  2.215738272440E-01
  2.269235057290E-01  2.324023468513E-01  2.380134691137E-01  2.437600663120E-01
  2.496454093530E-01  2.556728481164E-01  2.618458133614E-01  2.681678186792E-01
  2.746424624934E-01  2.812734301078E-01  2.880644958043E-01  2.950195249910E-01
  3.021424764024E-01  3.094374043527E-01  3.169084610433E-01  3.245598989268E-01
  3.323960731265E-01  3.404214439160E-01  3.486405792579E-01  3.570581574035E-01
  3.656789695559E-01  3.745079225969E-01  3.835500418800E-01  3.928104740912E-01
  4.022944901776E-01  4.120074883485E-01  4.219549971472E-01  4.270184571129E-01
  4.321426785983E-01  4.373283907415E-01  4.425763314304E-01  4.478872474075E-01
  4.532618943764E-01  4.587010371089E-01  4.642054495543E-01  4.697759149489E-01
  4.754132259283E-01  4.811181846394E-01  4.868916028551E-01  4.927343020894E-01
  4.986471137144E-01  5.046308790790E-01  5.106864496280E-01  5.168146870235E-01
  5.230164632678E-01  5.292926608270E-01  5.356441727569E-01  5.420719028300E-01
  5.485767656640E-01  5.551596868519E-01  5.618216030941E-01  5.685634623313E-01
  5.753862238793E-01  5.822908585658E-01  5.892783488686E-01  5.963496890550E-01
  6.035058853237E-01  6.107479559476E-01  6.180769314189E-01  6.254938545960E-01
  6.329997808511E-01  6.405957782213E-01  6.482829275600E-01  6.560623226907E-01
  6.639350705630E-01  6.719022914097E-01  6.799651189067E-01  6.881247003335E-01
  6.963821967375E-01  7.047387830984E-01  7.131956484956E-01  7.217539962775E-01
  7.304150442328E-01  7.391800247636E-01  7.480501850608E-01  7.570267872815E-01
  7.661111087289E-01  7.753044420337E-01  7.846080953381E-01  7.940233924821E-01
  8.035516731919E-01  8.131942932702E-01  8.229526247895E-01  8.328280562869E-01
  8.428219929624E-01  8.529358568779E-01  8.631710871605E-01  8.735291402064E-01
  8.840114898889E-01  8.946196277675E-01  9.053550633007E-01  9.162193240603E-01
  9.272139559491E-01  9.383405234205E-01  9.496006097015E-01  9.609958170179E-01
  9.725277668221E-01  9.841981000240E-01  9.960084772243E-01  1.007960578951E+00
  1.020056105898E+00  1.032296779169E+00  1.044684340519E+00  1.057220552605E+00
  1.069907199237E+00  1.082746085628E+00  1.095739038655E+00  1.108887907119E+00
  1.122194562004E+00  1.135660896748E+00  1.149288827509E+00  1.163080293440E+00
  1.177037256961E+00  1.191161704044E+00  1.205455644493E+00  1.219921112227E+00
  1.234560165573E+00  1.249374887560E+00  1.264367386211E+00  1.279539794846E+00
  1.294894272384E+00  1.310433003652E+00  1.326158199696E+00  1.342072098093E+00
  1.358176963270E+00  1.374475086829E+00  1.390968787871E+00  1.407660413325E+00
  1.424552338285E+00  1.441646966345E+00  1.458946729941E+00  1.476454090700E+00
  1.494171539788E+00  1.512101598266E+00  1.530246817445E+00  1.548609779254E+00
  1.567193096605E+00  1.585999413765E+00  1.605031406730E+00  1.624291783611E+00
  1.643783285014E+00  1.663508684434E+00  1.683470788647E+00  1.703672438111E+00
  1.724116507368E+00  1.744805905457E+00  1.765743576322E+00  1.786932499238E+00
  1.808375689229E+00  1.830076197500E+00  1.852037111870E+00  1.874261557212E+00
  1.896752695899E+00  1.919513728250E+00  1.942547892989E+00  1.965858467705E+00
  1.989448769317E+00  2.013322154549E+00  2.037482020403E+00  2.061931804648E+00
  2.086674986304E+00  2.111715086140E+00  2.137055667173E+00  2.162700335179E+00
  2.188652739202E+00  2.214916572072E+00  2.241495570937E+00  2.268393517788E+00
  2.295614240002E+00  2.323161610882E+00  2.351039550212E+00  2.379252024815E+00
  2.407803049112E+00  2.436696685702E+00  2.465937045930E+00  2.495528290481E+00
  2.525474629967E+00  2.555780325527E+00  2.586449689433E+00  2.617487085706E+00
  2.648896930735E+00  2.680683693904E+00  2.712851898230E+00  2.745406121009E+00
  2.778350994461E+00  2.811691206395E+00  2.845431500872E+00  2.879576678882E+00
  2.914131599029E+00  2.949101178217E+00  2.984490392356E+00  3.020304277064E+00
  3.056547928389E+00  3.093226503529E+00  3.130345221572E+00  3.167909364230E+00
  3.205924276601E+00  3.244395367920E+00  3.283328112335E+00  3.322728049683E+00
  3.362600786280E+00  3.402951995715E+00  3.443787419664E+00  3.485112868700E+00
  3.526934223124E+00  3.569257433801E+00  3.612088523007E+00  3.655433585283E+00
  3.699298788307E+00  3.743690373766E+00  3.788614658251E+00  3.834078034150E+00
  3.880086970560E+00  3.926648014207E+00  3.973767790377E+00  4.021453003862E+00
  4.069710439908E+00  4.118546965187E+00  4.167969528769E+00  4.217985163115E+00
  4.268600985072E+00  4.319824196893E+00  4.371662087256E+00  4.424122032303E+00
  4.477211496690E+00  4.530938034651E+00  4.585309291066E+00  4.640333002559E+00
  4.696016998590E+00  4.752369202573E+00  4.809397633004E+00  4.867110404600E+00
  4.925515729455E+00  4.984621918209E+00  5.044437381227E+00  5.104970629802E+00
  5.166230277360E+00  5.228225040688E+00  5.290963741176E+00  5.354455306070E+00
  5.418708769743E+00  5.483733274980E+00  5.549538074280E+00  5.616132531171E+00
  5.683526121545E+00  5.751728435004E+00  5.820749176224E+00  5.890598166338E+00
  5.961285344334E+00  6.032820768466E+00  6.105214617688E+00  6.178477193100E+00
  6.252618919418E+00  6.327650346451E+00  6.403582150608E+00  6.480425136415E+00
  6.558190238052E+00  6.636888520909E+00  6.716531183160E+00  6.797129557358E+00
  6.878695112046E+00  6.961239453391E+00  7.044774326831E+00  7.129311618753E+00
  7.214863358178E+00  7.301441718476E+00  7.389059019098E+00  7.477727727327E+00
  7.567460460055E+00  7.658269985576E+00  7.750169225403E+00  7.843171256108E+00
  7.937289311181E+00  8.032536782915E+00  8.128927224310E+00  8.226474351002E+00
  8.325192043214E+00  8.425094347732E+00  8.526195479905E+00  8.628509825664E+00
  8.732051943572E+00  8.836836566895E+00  8.942878605698E+00  9.050193148966E+00
  9.158795466753E+00  9.268701012355E+00  9.379925424503E+00  9.492484529597E+00
  9.606394343952E+00  9.721671076079E+00  9.838331128992E+00  9.956391102540E+00
  1.007586779577E+01  1.019677820932E+01  1.031913954783E+01  1.044296922241E+01
  1.056828485307E+01  1.069510427131E+01  1.082344552257E+01  1.095332686884E+01
  1.108476679126E+01  1.121778399276E+01  1.135239740067E+01  1.148862616948E+01
  1.162648968351E+01  1.176600755972E+01  1.190719965043E+01  1.205008604624E+01
  1.219468707879E+01  1.234102332374E+01  1.248911560362E+01  1.263898499087E+01
  1.279065281076E+01  1.294414064449E+01  1.309947033222E+01  1.325666397621E+01
  1.341574394392E+01  1.357673287125E+01  1.373965366570E+01  1.390452950969E+01
  1.407138386381E+01  1.424024047017E+01  1.441112335582E+01  1.458405683609E+01
  1.475906551812E+01  1.493617430434E+01  1.511540839599E+01  1.529679329674E+01
  1.548035481630E+01  1.566611907410E+01  1.585411250299E+01  1.604436185302E+01
  1.623689419526E+01  1.643173692560E+01  1.662891776871E+01  1.682846478193E+01
  1.703040635932E+01  1.723477123563E+01  1.744158849046E+01  1.765088755234E+01
  1.786269820297E+01  1.807705058140E+01  1.829397518838E+01  1.851350289064E+01
  1.873566492533E+01  1.896049290443E+01  1.918801881929E+01  1.941827504512E+01
  1.965129434566E+01  1.988710987781E+01  2.012575519634E+01  2.036726425870E+01
  2.061167142980E+01  2.085901148696E+01  2.110931962480E+01  2.136263146030E+01
  2.161898303782E+01  2.187841083428E+01  2.214095176429E+01  2.240664318546E+01
  2.267552290369E+01  2.294762917853E+01  2.322300072867E+01  2.350167673742E+01
  2.378369685827E+01  2.406910122057E+01  2.435793043521E+01  2.465022560043E+01
  2.494602830764E+01  2.524538064733E+01  2.554832521510E+01  2.585490511768E+01
  2.616516397909E+01  2.647914594684E+01  2.679689569820E+01  2.711845844658E+01
  2.744387994794E+01  2.777320650732E+01  2.810648498540E+01  2.844376280523E+01
  2.878508795889E+01  2.913050901440E+01  2.948007512257E+01  2.983383602404E+01
  3.019184205633E+01  3.055414416101E+01  3.092079389094E+01  3.129184341763E+01
  3.166734553864E+01  3.204735368511E+01  3.243192192933E+01  3.282110499248E+01
  3.321495825239E+01  3.361353775142E+01  3.401690020443E+01  3.442510300689E+01
  3.483820424297E+01  3.525626269389E+01  3.567933784621E+01  3.610748990037E+01
  3.654077977917E+01  3.697926913652E+01  3.742302036616E+01  3.787209661055E+01
  3.832656176988E+01  3.878648051112E+01  3.925191827725E+01  3.972294129658E+01
  4.019961659214E+01  4.068201199124E+01  4.117019613514E+01  4.166423848876E+01
  4.216420935063E+01  4.267017986283E+01  4.318222202119E+01  4.370040868544E+01
  4.422481358967E+01
</grid-data>
</grid>
<valence-charge total-charge="16" is-unscreening-charge="yes"
 rescaled-to-z-pseudo="no">
<radfunc>
<data npts="457">
  5.404697708077E+00  5.411722755859E+00  5.432723100570E+00  5.467759327891E+00
  5.516472568657E+00  5.580526762715E+00  5.662165144980E+00  5.755650626867E+00
  5.860767465286E+00  5.983352421037E+00  6.121527660323E+00  6.271713553611E+00
  6.453216535368E+00  6.642766712876E+00  6.866346874618E+00  7.089599509355E+00
  7.346622014198E+00  7.590181999083E+00  7.863894183115E+00  8.171372079984E+00
  8.516624689747E+00  8.822989966990E+00  9.158840018551E+00  9.526848438503E+00
  9.929889541568E+00  1.037104201885E+01  1.085358890344E+01  1.124475176491E+01
  1.166269304780E+01  1.210900686230E+01  1.258533584624E+01  1.309336242409E+01
  1.363479731723E+01  1.421136478259E+01  1.482478398379E+01  1.547674582167E+01
  1.616888447301E+01  1.690274280919E+01  1.741586248957E+01  1.794852964578E+01
  1.850107591751E+01  1.907378124072E+01  1.966686460979E+01  2.028047388037E+01
  2.091467456176E+01  2.156943755373E+01  2.224462579179E+01  2.293997977702E+01
  2.365510198186E+01  2.438944014323E+01  2.514226947874E+01  2.591267389156E+01
  2.669952626526E+01  2.750146799208E+01  2.831688792760E+01  2.914390102122E+01
  2.998032693624E+01  3.082366904533E+01  3.167109426674E+01  3.251941429216E+01
  3.336506884938E+01  3.420411173772E+01  3.503220047113E+01  3.584459045854E+01
  3.663613473924E+01  3.740129036843E+01  3.813413260690E+01  3.848648582797E+01
  3.882837810294E+01  3.915897344992E+01  3.947741825514E+01  3.978284295203E+01
  4.007436390175E+01  4.035108548152E+01  4.061210238695E+01  4.085650215272E+01
  4.108336789547E+01  4.129178128082E+01  4.148082571513E+01  4.164958976091E+01
  4.179717077261E+01  4.192267874767E+01  4.202524038512E+01  4.210400334192E+01
  4.215814067408E+01  4.218685544731E+01  4.218938549861E+01  4.216500832736E+01
  4.211304609124E+01  4.203287067909E+01  4.192390882960E+01  4.178564726141E+01
  4.161763777718E+01  4.141950230089E+01  4.119093780487E+01  4.093172108044E+01
  4.064171330335E+01  4.032086434349E+01  3.996921676649E+01  3.958690947373E+01
  3.917418092679E+01  3.873137190219E+01  3.825892772339E+01  3.775739991797E+01
  3.722744725088E+01  3.666983608712E+01  3.608544004189E+01  3.547523888069E+01
  3.484031663819E+01  3.418185893110E+01  3.350114944824E+01  3.279956560932E+01
  3.207857339331E+01  3.133972134722E+01  3.058463379647E+01  2.981500328893E+01
  2.903258231605E+01  2.823917436514E+01  2.743662436849E+01  2.662680862514E+01
  2.581162428143E+01  2.499297846555E+01  2.417277717958E+01  2.335291405906E+01
  2.253525911595E+01  2.172164758391E+01  2.091386898711E+01  2.011365655330E+01
  1.932267708959E+01  1.854252143513E+01  1.777469559819E+01  1.702061267673E+01
  1.628158565114E+01  1.555882112541E+01  1.485341407970E+01  1.416634368216E+01
  1.349847019233E+01  1.285053297202E+01  1.222314960367E+01  1.161681609960E+01
  1.103190817078E+01  1.046868350911E+01  9.927285024263E+00  9.407744965360E+00
  8.909989847857E+00  8.433846099434E+00  7.979046333338E+00  7.545236155133E+00
  7.131979236293E+00  6.738760810245E+00  6.365013708203E+00  6.010135480143E+00
  5.673492595317E+00  5.354426663677E+00  5.052260452617E+00  4.766303564207E+00
  4.495857756414E+00  4.240221881336E+00  3.998696419106E+00  3.770587589826E+00
  3.555211028752E+00  3.351895012207E+00  3.159983223482E+00  2.978837049719E+00
  2.807837402731E+00  2.646407320054E+00  2.494079880298E+00  2.350448167863E+00
  2.215099365700E+00  2.087630653462E+00  1.967649850980E+00  1.854775965364E+00
  1.748639646417E+00  1.648883555242E+00  1.555162650993E+00  1.467144400860E+00
  1.384508918381E+00  1.306949035208E+00  1.234170311426E+00  1.165890989483E+00
  1.101841896709E+00  1.041766301295E+00  9.854197265045E-01  9.325697277128E-01
  8.829956367423E-01  8.364882777577E-01  7.928496588066E-01  7.518926428774E-01
  7.134406021294E-01  6.773270587181E-01  6.433953154033E-01  6.114980788819E-01
  5.814970785381E-01  5.532626830583E-01  5.266735171082E-01  5.016160800297E-01
  4.779843682835E-01  4.556795031418E-01  4.346093649285E-01  4.146882349150E-01
  3.958364458061E-01  3.779800415943E-01  3.610504474244E-01  3.449841499876E-01
  3.297223888591E-01  3.152108590979E-01  3.013994253464E-01  2.882418475941E-01
  2.756955187028E-01  2.637212137321E-01  2.522828510471E-01  2.413472651403E-01
  2.308839910538E-01  2.208650602395E-01  2.112648076601E-01  2.020596898933E-01
  1.932281139695E-01  1.847502766444E-01  1.766080137825E-01  1.687846595074E-01
  1.612649147540E-01  1.540347248510E-01  1.470811657447E-01  1.403923384753E-01
  1.339572715108E-01  1.277658305438E-01  1.218086353605E-01  1.160769833948E-01
  1.105627795876E-01  1.052584721810E-01  1.001569940855E-01  9.525170947225E-02
  9.053636525213E-02  8.600504711849E-02  8.165213984382E-02  7.747229153457E-02
  7.346038156334E-02  6.961149191221E-02  6.592088167589E-02  6.238396448765E-02
  5.899628864550E-02  5.575351972987E-02  5.265142551724E-02  4.968586300678E-02
  4.685276738898E-02  4.414814279587E-02  4.156805468286E-02  3.910862370063E-02
  3.676602092411E-02  3.453646431053E-02  3.241621627624E-02  3.040158225475E-02
  2.848891015218E-02  2.667459057937E-02  2.495505776183E-02  2.332679102898E-02
  2.178631678774E-02  2.033021088911E-02  1.895510130053E-02  1.765767100078E-02
  1.643466101923E-02  1.528287354602E-02  1.419917504557E-02  1.318049931172E-02
  1.222385040903E-02  1.132630545145E-02  1.048501717624E-02  9.697216277776E-03
  8.960213472606E-03  8.271401273774E-03  7.628255458574E-03  7.028336219979E-03
  6.469288997489E-03  5.948844988194E-03  5.464821343428E-03  5.015121060375E-03
  4.597732581430E-03  4.210729117041E-03  3.852267710046E-03  3.520588061374E-03
  3.214011138270E-03  2.930937587049E-03  2.669845972779E-03  2.429290868346E-03
  2.207900814990E-03  2.004376175782E-03  1.817486902626E-03  1.646070236250E-03
  1.489028357369E-03  1.345326005802E-03  1.213988082824E-03  1.094097250487E-03
  9.847915400870E-04  8.852619804220E-04  7.947502550031E-04  7.125463959751E-04
  6.379865211973E-04  5.704506197461E-04  5.093603900323E-04  4.541771337954E-04
  4.043997084311E-04  3.595625394351E-04  3.192336941927E-04  2.830130178979E-04
  2.505303320392E-04  2.214436956259E-04  1.954377291309E-04  1.722220009842E-04
  1.515294763475E-04  1.331150278244E-04  1.167540076999E-04  1.022408812497E-04
  8.938792060681E-05  7.802395861356E-05  6.799320202063E-05  5.915410331589E-05
  5.137829037884E-05  4.454955305737E-05  3.856288565786E-05  3.332358422756E-05
  2.874639739298E-05  2.475472940322E-05  2.127989391429E-05  1.826041694371E-05
  1.564138732537E-05  1.337385290534E-05  1.141426064226E-05  9.723938711030E-06
  8.268618658351E-06  7.017995622527E-06  5.945324608299E-06  5.027050800310E-06
  4.242471905307E-06  3.573430532767E-06  3.004034655241E-06  2.520404232340E-06
  2.110442134571E-06  1.763627564073E-06  1.470830237215E-06  1.224143667831E-06
  1.016735968270E-06  8.427166671422E-07  6.970181268048E-07  5.752902277005E-07
  4.738070756511E-07  3.893845772963E-07  3.193077221169E-07  2.612668925591E-07
  2.133017060418E-07  1.737519587944E-07  1.412149704221E-07  1.145084302706E-07
  9.263812192738E-08  7.476998114155E-08  6.020597006584E-08  4.836330045154E-08
  3.875658753468E-08  3.098256090854E-08  2.462863296697E-08  1.959407901507E-08
  1.554945551464E-08  1.230834259842E-08  9.717758603175E-09  7.652488109209E-09
  6.010310864345E-09  4.707999535818E-09  3.677971687919E-09  2.865496844947E-09
  2.226373145762E-09  1.725000097265E-09  1.332784449941E-09  1.026825400258E-09
  7.888333131332E-10  6.042430834365E-10  4.614892390731E-10  3.514150396079E-10
  2.667922440841E-10  2.019320003581E-10  1.523705277406E-10  1.146159982141E-10
  8.594533431990E-11  6.424159189392E-11  4.786423435461E-11  3.554597716411E-11
  2.631102576099E-11  1.941048196774E-11  1.427148234609E-11  1.045728288317E-11
  7.636039819531E-12  5.556475280598E-12  4.028974764418E-12  2.910955154959E-12
  2.095578342274E-12  1.503076479976E-12  1.074108564336E-12  7.646911976427E-13
  5.423447713945E-13  3.831745673018E-13  2.696682971277E-13  1.890405642831E-13
  1.319932295426E-13  9.179081581763E-14  6.357360770360E-14  4.384937490187E-14
  3.011878729788E-14  2.060048386709E-14  1.403011713296E-14  9.514082389537E-15
  6.423500773965E-15  4.317706970443E-15  2.889269346324E-15  1.924655761063E-15
  1.276217422020E-15  8.423235798155E-16  5.533396023277E-16  3.617750237396E-16
  2.353936084280E-16  1.524175352644E-16  9.820509058613E-17  6.296021005892E-17
  4.016108317786E-17  2.548739384207E-17  1.609160795998E-17  1.010649506623E-17
  6.313958168924E-18  3.923514659247E-18  2.424897330884E-18  1.490485105549E-18
  9.110653003640E-19  5.537707061177E-19  3.346876858267E-19  2.011171443773E-19
  1.201511747757E-19  7.135856590546E-20  4.212817009467E-20  2.472158504307E-20
  1.441868718032E-20  8.357740151239E-21  4.814302344090E-21  2.755664218883E-21
  1.567237260236E-21  0.000000000000E+00  0.000000000000E+00  0.000000000000E+00
  0.000000000000E+00  0.000000000000E+00  0.000000000000E+00  0.000000000000E+00
  0.000000000000E+00  0.000000000000E+00  0.000000000000E+00  0.000000000000E+00
  0.000000000000E+00  0.000000000000E+00  0.000000000000E+00  0.000000000000E+00
  0.000000000000E+00
</data>
</radfunc>
</valence-charge>
<pseudocore-charge matching-radius="0.416951578209"
 number-of-continuous-derivatives="4">
<annotation model-charge-form="Teter function with specified parameters" />
<radfunc>
<data npts="290">
  1.218361508091E+02  1.218166127669E+02  1.217582175208E+02  1.216608293123E+02
  1.215254992549E+02  1.213476835860E+02  1.211212720301E+02  1.208623031239E+02
  1.205714923323E+02  1.202328581070E+02  1.198518007989E+02  1.194383883453E+02
  1.189398267498E+02  1.184203814437E+02  1.178092630579E+02  1.172007265840E+02
  1.165021970499E+02  1.158422550979E+02  1.151028973696E+02  1.142751623951E+02
  1.133492370331E+02  1.125306387559E+02  1.116364678587E+02  1.106604475807E+02
  1.095959265473E+02  1.084358890857E+02  1.071729748912E+02  1.061536707440E+02
  1.050688484255E+02  1.039150976838E+02  1.026889545508E+02  1.013869226527E+02
  1.000054988217E+02  9.854120350358E+01  9.699061646896E+01  9.535041834301E+01
  9.361743846058E+01  9.178870952707E+01  9.051501569252E+01  8.919683792030E+01
  8.783353116507E+01  8.642453707554E+01  8.496939539636E+01  8.346775605873E+01
  8.191939194112E+01  8.032421226959E+01  7.868227661366E+01  7.699380941806E+01
  7.525921499290E+01  7.347909286522E+01  7.165425337280E+01  6.978573335689E+01
  6.787481178399E+01  6.592302509882E+01  6.393218207971E+01  6.190437793608E+01
  5.984200735469E+01  5.774777616727E+01  5.562471127897E+01  5.347616846416E+01
  5.130583760576E+01  4.911774492702E+01  4.691625174245E+01  4.470604923913E+01
  4.249214879252E+01  4.027986732500E+01  3.807480723256E+01  3.697680775153E+01
  3.588283043803E+01  3.479364329984E+01  3.371002618083E+01  3.263276939045E+01
  3.156267222542E+01  3.050054138315E+01  2.944718926684E+01  2.840343218306E+01
  2.737008843290E+01  2.634797629906E+01  2.533791193160E+01  2.434070713612E+01
  2.335716706912E+01  2.238808784606E+01  2.143425406882E+01  2.049643628010E+01
  1.957538835377E+01  1.867184483068E+01  1.778651821129E+01  1.692009621693E+01
  1.607323903330E+01  1.524657655037E+01  1.444070561442E+01  1.365618730872E+01
  1.289354428065E+01  1.215325813379E+01  1.143576690448E+01  1.074146264326E+01
  1.007068912193E+01  9.423739687823E+00  8.800855287050E+00  8.202222678538E+00
  7.627972860865E+00  7.078179733430E+00  6.552859013025E+00  6.051967426084E+00
  5.575402195789E+00  5.123000841834E+00  4.694541308964E+00  4.289742438381E+00
  3.908264793774E+00  3.549711851085E+00  3.213631558121E+00  2.899518266841E+00
  2.606815037581E+00  2.334916310594E+00  2.083170936254E+00  1.850885550933E+00
  1.637328281179E+00  1.441732754261E+00  1.263302388626E+00  1.101214933236E+00
  9.546272204184E-01  8.226800925863E-01  7.045034593003E-01  5.992214375848E-01
  5.059575253323E-01  4.238397551211E-01  3.520057739172E-01  2.896077930239E-01
  2.358173523587E-01  1.898298437523E-01  1.508687395344E-01  1.181894752377E-01
  9.108293883592E-02  6.887852354206E-02  5.094670679742E-02  3.670112463945E-02
  2.560011806342E-02  1.714773618759E-02  1.089418985643E-02  6.435758607991E-03
  3.414163500246E-03  1.515427923156E-03  4.682579847219E-04  4.198310433779E-05
  4.410582008333E-05  3.175172644026E-04  7.374410394907E-04  1.208173102435E-03
  1.659688551461E-03  2.044187726871E-03  2.332653688973E-03  2.511490851559E-03
  2.579310337607E-03  2.543921556097E-03  2.419581719132E-03  2.224545741998E-03
  1.978948479002E-03  1.703039890255E-03  1.415781905694E-03  1.133803887052E-03
  8.707021413123E-04  6.366583659871E-04  4.383426422313E-04  2.790590269971E-04
  1.590862545363E-04  7.616277755581E-05  2.606449095685E-05  3.224999639405E-06
  1.352103856353E-06  1.400004259180E-05  3.506460072548E-05  5.917699033097E-05
  8.198192303820E-05  1.002949144689E-04  1.121430083251E-04  1.167012113487E-04
  1.141434959047E-04  1.054318675898E-04  9.206946482750E-05  7.584387330724E-05
  5.858489241595E-05  4.195714717391E-05  2.730261479208E-05  1.554186768940E-05
  7.136237559014E-06  2.106810678909E-06  1.007660023267E-07  4.915587715004E-07
  2.497177438808E-06  5.300316468743E-06  8.155760946526E-06  1.047331592805E-05
  1.186880258427E-05  1.218042545677E-05  1.145257098170E-05  9.893223762201E-06
  7.814175163116E-06  5.564702575353E-06  3.469282111496E-06  1.778258940182E-06
  6.375532506590E-07  7.991454296587E-08  0.000000000000E+00  0.000000000000E+00
  0.000000000000E+00  0.000000000000E+00  0.000000000000E+00  0.000000000000E+00
  0.000000000000E+00  0.000000000000E+00  0.000000000000E+00  0.000000000000E+00
  0.000000000000E+00  0.000000000000E+00  0.000000000000E+00  0.000000000000E+00
  0.000000000000E+00  0.000000000000E+00  0.000000000000E+00  0.000000000000E+00
  0.000000000000E+00  0.000000000000E+00  0.000000000000E+00  0.000000000000E+00
  0.000000000000E+00  0.000000000000E+00  0.000000000000E+00  0.000000000000E+00
  0.000000000000E+00  0.000000000000E+00  0.000000000000E+00  0.000000000000E+00
  0.000000000000E+00  0.000000000000E+00  0.000000000000E+00  0.000000000000E+00
  0.000000000000E+00  0.000000000000E+00  0.000000000000E+00  0.000000000000E+00
  0.000000000000E+00  0.000000000000E+00  0.000000000000E+00  0.000000000000E+00
  0.000000000000E+00  0.000000000000E+00  0.000000000000E+00  0.000000000000E+00
  0.000000000000E+00  0.000000000000E+00  0.000000000000E+00  0.000000000000E+00
  0.000000000000E+00  0.000000000000E+00  0.000000000000E+00  0.000000000000E+00
  0.000000000000E+00  0.000000000000E+00  0.000000000000E+00  0.000000000000E+00
  0.000000000000E+00  0.000000000000E+00  0.000000000000E+00  0.000000000000E+00
  0.000000000000E+00  0.000000000000E+00  0.000000000000E+00  0.000000000000E+00
  0.000000000000E+00  0.000000000000E+00  0.000000000000E+00  0.000000000000E+00
  0.000000000000E+00  0.000000000000E+00  0.000000000000E+00  0.000000000000E+00
  0.000000000000E+00  0.000000000000E+00  0.000000000000E+00  0.000000000000E+00
  0.000000000000E+00  0.000000000000E+00  0.000000000000E+00  0.000000000000E+00
  0.000000000000E+00  0.000000000000E+00  0.000000000000E+00  0.000000000000E+00
  0.000000000000E+00  0.000000000000E+00
</data>
</radfunc>
</pseudocore-charge>
<semilocal-potentials set="scalar_relativistic">
<slps n="3" l="s" rc="1.10888790712" eref="-3.45509113504">
<radfunc>
<data npts="290">
 -1.157107373236E+01 -1.157416874580E+01 -1.158341517512E+01 -1.159882705917E+01
 -1.162022548132E+01 -1.164831029856E+01 -1.168401893855E+01 -1.172479168196E+01
 -1.177048796880E+01 -1.182357962487E+01 -1.188316935753E+01 -1.194763602270E+01
 -1.202512856410E+01 -1.210557506195E+01 -1.219983909444E+01 -1.229329871800E+01
 -1.240008251400E+01 -1.250048195264E+01 -1.261240605345E+01 -1.273701424069E+01
 -1.287554038906E+01 -1.299725487380E+01 -1.312940207661E+01 -1.327269385603E+01
 -1.342785420200E+01 -1.359561111468E+01 -1.377668653790E+01 -1.392165774902E+01
 -1.407480254156E+01 -1.423639198907E+01 -1.440667828681E+01 -1.458588974199E+01
 -1.477422524165E+01 -1.497184819203E+01 -1.517887993186E+01 -1.539539263302E+01
 -1.562140171320E+01 -1.585685779957E+01 -1.601901959532E+01 -1.618527106112E+01
 -1.635553862652E+01 -1.652973015147E+01 -1.670773371950E+01 -1.688941642899E+01
 -1.707462319038E+01 -1.726317553767E+01 -1.745487046310E+01 -1.764947928463E+01
 -1.784674655599E+01 -1.804638902959E+01 -1.824809468320E+01 -1.845152182091E+01
 -1.865629825981E+01 -1.886202061346E+01 -1.906825368337E+01 -1.927452997012E+01
 -1.948034931514E+01 -1.968517868502E+01 -1.988845210956E+01 -2.008957078583E+01
 -2.028790336034E+01 -2.048278640262E+01 -2.067352508425E+01 -2.085939407917E+01
 -2.103963870293E+01 -2.121347631090E+01 -2.138009797862E+01 -2.146044334274E+01
 -2.153867049066E+01 -2.161467185672E+01 -2.168833866808E+01 -2.175956103835E+01
 -2.182822806791E+01 -2.189422795122E+01 -2.195744809145E+01 -2.201777522274E+01
 -2.207509554029E+01 -2.212929483881E+01 -2.218025865932E+01 -2.222787244478E+01
 -2.227202170468E+01 -2.231259218870E+01 -2.234947006973E+01 -2.238254213619E+01
 -2.241169599373E+01 -2.243682027632E+01 -2.245780486638E+01 -2.247454112403E+01
 -2.248692212498E+01 -2.249484290674E+01 -2.249820072274E+01 -2.249689530370E+01
 -2.249082912581E+01 -2.247990768496E+01 -2.246403977618E+01 -2.244313777774E+01
 -2.241711793884E+01 -2.238590067014E+01 -2.234941083629E+01 -2.230757804935E+01
 -2.226033696236E+01 -2.220762756204E+01 -2.214939545956E+01 -2.208559217845E+01
 -2.201617543853E+01 -2.194110943474E+01 -2.186036510967E+01 -2.177392041836E+01
 -2.168176058417E+01 -2.158387834388E+01 -2.148027418049E+01 -2.137095654192E+01
 -2.125594204351E+01 -2.113525565250E+01 -2.100893085230E+01 -2.087700978462E+01
 -2.073954336752E+01 -2.059659138790E+01 -2.044822256702E+01 -2.029451459854E+01
 -2.013555415927E+01 -1.997143689358E+01 -1.980226737410E+01 -1.962815904260E+01
 -1.944923413683E+01 -1.926562361154E+01 -1.907746706387E+01 -1.888491267684E+01
 -1.868811719683E+01 -1.848724596516E+01 -1.828247302642E+01 -1.807398134010E+01
 -1.786196312493E+01 -1.764662036794E+01 -1.742816553215E+01 -1.720682249715E+01
 -1.698282776566E+01 -1.675643196533E+01 -1.652790166838E+01 -1.629752154069E+01
 -1.606559681644E+01 -1.583245607308E+01 -1.559845425329E+01 -1.536397584521E+01
 -1.512943808892E+01 -1.489529402513E+01 -1.466203586876E+01 -1.443018685703E+01
 -1.426034761090E+01 -1.409216303298E+01 -1.392585645886E+01 -1.376138918479E+01
 -1.359873713996E+01 -1.343787651164E+01 -1.327878413923E+01 -1.312143779960E+01