<?xml version="1.0" encoding="UTF-8" ?>
<psml version="1.1" energy_unit="hartree" length_unit="bohr"
 uuid="a1b89330-be62-11e7-4050-6759b31365a7"
 xmlns="http://esl.cecam.org/PSML/ns/1.1">
<provenance creator="ONCVPSP-3.3.0+psml-3.3.0-73 (scalar-relativistic)"
 date="2017-10-31">
<annotation action="semilocal-pseudopotential-generation"
 action-cont="projectors-generation" />
<input-file name="oncvpsp-input">
<![CDATA[# atsym z nc nv iexc psfile
Si 14 3 2 4 upf
# n l f
1 0 2.0
2 0 2.0
2 1 6.0
3 0 2.0
3 1 2.0
# lmax
2
# l rc ep ncon nbas qcut
0 1.6 0.0 4 9 6.4
1 1.71 0.0 4 9 6.4
2 1.9 0.05 4 9 6.4
# lloc lpopt rc5 dvloc0
4 5 1.6 0.0
# l nproj debl
0 2 2.5
1 2 2.5
2 2 1.5
# icmod fcfact rcfact
3 4.0 1.3
# epsh1 epsh2 depsh
-12.0 12.0 0.02
# rlmax drl
6.0 0.01
 0
]]>
</input-file>
</provenance>
<pseudo-atom-spec atomic-label="Si" atomic-number="14" z-pseudo="4"
 flavor="Hamann&apos;s oncvpsp" relativity="scalar" spin-dft="no"
 core-corrections="yes">
<annotation pseudo-energy="-3.76012308614" />
<exchange-correlation>
<annotation oncvpsp-xc-code="4" oncvpsp-xc-type="GGA -- Perdew-Burke-Ernzerhof" />
<libxc-info number-of-functionals="2">
<functional name="Perdew, Burke &amp; Ernzerhof (GGA)" type="exchange" id="101" />
<functional name="Perdew, Burke &amp; Ernzerhof (GGA)" type="correlation"
 id="130" />
</libxc-info>
</exchange-correlation>
<valence-configuration total-valence-charge="4">
<shell n="3" l="s" occupation="2" />
<shell n="3" l="p" occupation="2" />
</valence-configuration>
</pseudo-atom-spec>
<grid npts="457">
<annotation type="sampled from oncvpsp log grid"
 recipe="r(i:1..N) = r1*exp(a*(i-1)) + r=0; resampled"
 recipe-cont="r1: scale; a: step" scale="0.357142857143E-04"
 step="0.119285708653E-01" delta="0.500000000000E-02" rmax="44.1697227368" />
<grid-data>
  0.000000000000E+00  5.043762840785E-03  1.007452045417E-02  1.511338716874E-02
  2.012306398724E-02  2.524200484366E-02  3.055005847129E-02  3.567456681735E-02
  4.067657200651E-02  4.582995923277E-02  5.102395083885E-02  5.613299095240E-02
  6.175360044568E-02  6.713142577090E-02  7.297758014932E-02  7.839214240648E-02
  8.420843742015E-02  8.938366768873E-02  9.487695407084E-02  1.007078434632E-01
  1.068970840635E-01  1.121212442685E-01  1.176007140554E-01  1.233479706417E-01
  1.293761010181E-01  1.356988317486E-01  1.423305602273E-01  1.475161931447E-01
  1.528907580013E-01  1.584611382921E-01  1.642344683032E-01  1.702181422495E-01
  1.764198237449E-01  1.828474556171E-01  1.895092700805E-01  1.964137992801E-01
  2.035698862185E-01  2.109866960820E-01  2.160807588722E-01  2.212978127144E-01
  2.266408271046E-01  2.321128432342E-01  2.377169757212E-01  2.434564143831E-01
  2.493344260519E-01  2.553543564345E-01  2.615196320163E-01  2.678337620117E-01
  2.743003403617E-01  2.809230477794E-01  2.877056538450E-01  2.946520191514E-01
  3.017660975018E-01  3.090519381599E-01  3.165136881548E-01  3.241555946416E-01
  3.319820073186E-01  3.399973809033E-01  3.482062776679E-01  3.566133700359E-01
  3.652234432420E-01  3.740413980557E-01  3.830722535703E-01  3.923211500605E-01
  4.017933519076E-01  4.114942505960E-01  4.214293677824E-01  4.264865201958E-01
  4.316043584382E-01  4.367836107394E-01  4.420250140683E-01  4.473293142371E-01
  4.526972660080E-01  4.581296332001E-01  4.636271887985E-01  4.691907150641E-01
  4.748210036448E-01  4.805188556886E-01  4.862850819568E-01  4.921205029403E-01
  4.980259489756E-01  5.040022603633E-01  5.100502874877E-01  5.161708909375E-01
  5.223649416288E-01  5.286333209283E-01  5.349769207794E-01  5.413966438288E-01
  5.478934035547E-01  5.544681243974E-01  5.611217418902E-01  5.678552027928E-01
  5.746694652264E-01  5.815654988091E-01  5.885442847948E-01  5.956068162123E-01
  6.027540980069E-01  6.099871471830E-01  6.173069929492E-01  6.247146768645E-01
  6.322112529869E-01  6.397977880228E-01  6.474753614790E-01  6.552450658168E-01
  6.631080066066E-01  6.710653026859E-01  6.791180863181E-01  6.872675033539E-01
  6.955147133942E-01  7.038608899549E-01  7.123072206343E-01  7.208549072820E-01
  7.295051661693E-01  7.382592281634E-01  7.471183389013E-01  7.560837589681E-01
  7.651567640758E-01  7.743386452447E-01  7.836307089876E-01  7.930342774955E-01
  8.025506888254E-01  8.121812970913E-01  8.219274726564E-01  8.317906023283E-01
  8.417720895562E-01  8.518733546309E-01  8.620958348865E-01  8.724409849051E-01
  8.829102767240E-01  8.935052000447E-01  9.042272624452E-01  9.150779895945E-01
  9.260589254697E-01  9.371716325753E-01  9.484176921662E-01  9.597987044722E-01
  9.713162889259E-01  9.829720843930E-01  9.947677494057E-01  1.006704962399E+00
  1.018785421947E+00  1.031010847011E+00  1.043382977175E+00  1.055903572901E+00
  1.068574415776E+00  1.081397308765E+00  1.094374076470E+00  1.107506565388E+00
  1.120796644173E+00  1.134246203903E+00  1.147857158349E+00  1.161631444250E+00
  1.175571021581E+00  1.189677873840E+00  1.203954008326E+00  1.218401456426E+00
  1.233022273903E+00  1.247818541190E+00  1.262792363684E+00  1.277945872048E+00
  1.293281222513E+00  1.308800597183E+00  1.324506204349E+00  1.340400278801E+00
  1.356485082147E+00  1.372762903132E+00  1.389236057970E+00  1.405906890666E+00
  1.422777773354E+00  1.439851106634E+00  1.457129319914E+00  1.474614871753E+00
  1.492310250214E+00  1.510217973216E+00  1.528340588895E+00  1.546680675961E+00
  1.565240844073E+00  1.584023734202E+00  1.603032019012E+00  1.622268403240E+00
  1.641735624079E+00  1.661436451568E+00  1.681373688987E+00  1.701550173255E+00
  1.721968775334E+00  1.742632400638E+00  1.763543989446E+00  1.784706517319E+00
  1.806122995527E+00  1.827796471473E+00  1.849730029131E+00  1.871926789480E+00
  1.894389910954E+00  1.917122589886E+00  1.940128060964E+00  1.963409597696E+00
  1.986970512868E+00  2.010814159023E+00  2.034943928931E+00  2.059363256078E+00
  2.084075615151E+00  2.109084522533E+00  2.134393536803E+00  2.160006259245E+00
  2.185926334356E+00  2.212157450368E+00  2.238703339772E+00  2.265567779850E+00
  2.292754593208E+00  2.320267648326E+00  2.348110860106E+00  2.376288190428E+00
  2.404803648713E+00  2.433661292497E+00  2.462865228007E+00  2.492419610743E+00
  2.522328646072E+00  2.552596589825E+00  2.583227748903E+00  2.614226481890E+00
  2.645597199672E+00  2.677344366069E+00  2.709472498461E+00  2.741986168443E+00
  2.774890002464E+00  2.808188682494E+00  2.841886946684E+00  2.875989590044E+00
  2.910501465124E+00  2.945427482706E+00  2.980772612498E+00  3.016541883848E+00
  3.052740386455E+00  3.089373271092E+00  3.126445750345E+00  3.163963099349E+00
  3.201930656541E+00  3.240353824420E+00  3.279238070313E+00  3.318588927157E+00
  3.358411994283E+00  3.398712938214E+00  3.439497493473E+00  3.480771463394E+00
  3.522540720955E+00  3.564811209606E+00  3.607588944122E+00  3.650880011451E+00
  3.694690571589E+00  3.739026858448E+00  3.783895180749E+00  3.829301922918E+00
  3.875253545993E+00  3.921756588545E+00  3.968817667608E+00  4.016443479619E+00
  4.064640801374E+00  4.113416490991E+00  4.162777488883E+00  4.212730818749E+00
  4.263283588574E+00  4.314442991637E+00  4.366216307537E+00  4.418610903227E+00
  4.471634234066E+00  4.525293844875E+00  4.579597371013E+00  4.634552539465E+00
  4.690167169939E+00  4.746449175978E+00  4.803406566090E+00  4.861047444883E+00
  4.919380014222E+00  4.978412574392E+00  5.038153525285E+00  5.098611367588E+00
  5.159794703999E+00  5.221712240447E+00  5.284372787333E+00  5.347785260781E+00
  5.411958683910E+00  5.476902188117E+00  5.542625014375E+00  5.609136514547E+00
  5.676446152722E+00  5.744563506554E+00  5.813498268633E+00  5.883260247857E+00
  5.953859370831E+00  6.025305683281E+00  6.097609351480E+00  6.170780663698E+00
  6.244830031662E+00  6.319767992042E+00  6.395605207947E+00  6.472352470442E+00
  6.550020700087E+00  6.628620948488E+00  6.708164399870E+00  6.788662372669E+00
  6.870126321141E+00  6.952567836994E+00  7.035998651038E+00  7.120430634851E+00
  7.205875802469E+00  7.292346312099E+00  7.379854467844E+00  7.468412721458E+00
  7.558033674116E+00  7.648730078205E+00  7.740514839143E+00  7.833401017213E+00
  7.927401829420E+00  8.022530651373E+00  8.118801019189E+00  8.216226631419E+00
  8.314821350996E+00  8.414599207208E+00  8.515574397695E+00  8.617761290467E+00
  8.721174425953E+00  8.825828519064E+00  8.931738461293E+00  9.038919322829E+00
  9.147386354702E+00  9.257154990959E+00  9.368240850850E+00  9.480659741061E+00
  9.594427657953E+00  9.709560789849E+00  9.826075519327E+00  9.943988425559E+00
  1.006331628667E+01  1.018407608211E+01  1.030628499509E+01  1.042996041503E+01
  1.055511994001E+01  1.068178137929E+01  1.080996275584E+01  1.093968230891E+01
  1.107095849662E+01  1.120380999858E+01  1.133825571856E+01  1.147431478719E+01
  1.161200656463E+01  1.175135064341E+01  1.189236685113E+01  1.203507525334E+01
  1.217949615638E+01  1.232565011026E+01  1.247355791158E+01  1.262324060652E+01
  1.277471949380E+01  1.292801612773E+01  1.308315232126E+01  1.324015014911E+01
  1.339903195090E+01  1.355982033431E+01  1.372253817832E+01  1.388720863646E+01
  1.405385514010E+01  1.422250140178E+01  1.439317141861E+01  1.456588947563E+01
  1.474068014934E+01  1.491756831113E+01  1.509657913086E+01  1.527773808043E+01
  1.546107093740E+01  1.564660378865E+01  1.583436303411E+01  1.602437539052E+01
  1.621666789521E+01  1.641126790995E+01  1.660820312487E+01  1.680750156237E+01
  1.700919158111E+01  1.721330188009E+01  1.741986150265E+01  1.762889984068E+01
  1.784044663877E+01  1.805453199843E+01  1.827118638241E+01  1.849044061900E+01
  1.871232590643E+01  1.893687381731E+01  1.916411630312E+01  1.939408569875E+01
  1.962681472714E+01  1.986233650386E+01  2.010068454191E+01  2.034189275641E+01
  2.058599546949E+01  2.083302741512E+01  2.108302374411E+01  2.133602002904E+01
  2.159205226938E+01  2.185115689662E+01  2.211337077938E+01  2.237873122873E+01
  2.264727600347E+01  2.291904331551E+01  2.319407183530E+01  2.347240069732E+01
  2.375406950569E+01  2.403911833976E+01  2.432758775984E+01  2.461951881296E+01
  2.491495303871E+01  2.521393247518E+01  2.551649966488E+01  2.582269766086E+01
  2.613257003279E+01  2.644616087318E+01  2.676351480366E+01  2.708467698130E+01
  2.740969310508E+01  2.773860942234E+01  2.807147273541E+01  2.840833040823E+01
  2.874923037313E+01  2.909422113761E+01  2.944335179126E+01  2.979667201275E+01
  3.015423207691E+01  3.051608286183E+01  3.088227585617E+01  3.125286316645E+01
  3.162789752444E+01  3.200743229474E+01  3.239152148227E+01  3.278021974006E+01
  3.317358237694E+01  3.357166536547E+01  3.397452534985E+01  3.438221965405E+01
  3.479480628990E+01  3.521234396538E+01  3.563489209296E+01  3.606251079808E+01
  3.649526092765E+01  3.693320405879E+01  3.737640250749E+01  3.782491933758E+01
  3.827881836963E+01  3.873816419007E+01  3.920302216035E+01  3.967345842627E+01
  4.014953992739E+01  4.063133440652E+01  4.111891041939E+01  4.161233734443E+01
  4.211168539256E+01  4.261702561727E+01  4.312842992468E+01  4.364597108377E+01
  4.416972273678E+01
</grid-data>
</grid>
<valence-charge total-charge="4" is-unscreening-charge="yes"
 rescaled-to-z-pseudo="no">
<radfunc>
<data npts="457">
  2.854402290515E-02  2.855757737145E-02  2.859810286415E-02  2.866573582630E-02
  2.875981572165E-02  2.888360400665E-02  2.904150788476E-02  2.922251089015E-02
  2.942627148207E-02  2.966421307141E-02  2.993283405077E-02  3.022531309339E-02
  3.057949723555E-02  3.095023460561E-02  3.138866581253E-02  3.182770299851E-02
  3.233472546299E-02  3.281677784482E-02  3.336038965338E-02  3.397349190160E-02
  3.466505609181E-02  3.528157940966E-02  3.596060031798E-02  3.670853805975E-02
  3.753248848094E-02  3.844029876032E-02  3.944065099970E-02  4.025738942547E-02
  4.113599816446E-02  4.208126199483E-02  4.309834973342E-02  4.419284683793E-02
  4.537079093152E-02  4.663871050221E-02  4.800366704069E-02  4.947330088819E-02
  5.105588106807E-02  5.276035936940E-02  5.396915376582E-02  5.523948459787E-02
  5.657458756800E-02  5.797787541541E-02  5.945294766551E-02  6.100360081857E-02
  6.263383897061E-02  6.434788485296E-02  6.615019126878E-02  6.804545289545E-02
  7.003861841040E-02  7.213490288522E-02  7.433980037753E-02  7.665909663349E-02
  7.909888179415E-02  8.166556297724E-02  8.436587658234E-02  8.720690014042E-02
  9.019606350084E-02  9.334115911781E-02  9.665035116628E-02  1.001321831836E-01
  1.037955838991E-01  1.076498708799E-01  1.117047515871E-01  1.159703214073E-01
  1.204570581942E-01  1.251758128329E-01  1.301377953196E-01  1.327135937789E-01
  1.353545558404E-01  1.380621744221E-01  1.408379603213E-01  1.436834411112E-01
  1.466001599314E-01  1.495896741681E-01  1.526535540195E-01  1.557933809435E-01
  1.590107459826E-01  1.623072479640E-01  1.656844915694E-01  1.691440852716E-01
  1.726876391334E-01  1.763167624648E-01  1.800330613349E-01  1.838381359319E-01
  1.877335777676E-01  1.917209667204E-01  1.958018679093E-01  1.999778283926E-01
  2.042503736820E-01  2.086210040632E-01  2.130911907111E-01  2.176623715861E-01
  2.223359470988E-01  2.271132755224E-01  2.319956681370E-01  2.369843840801E-01
  2.420806248801E-01  2.472855286429E-01  2.526001638601E-01  2.580255228024E-01
  2.635625144604E-01  2.692119569867E-01  2.749745695958E-01  2.808509638682E-01
  2.868416344073E-01  2.929469487911E-01  2.991671367602E-01  3.055022785822E-01
  3.119522925312E-01  3.185169214238E-01  3.251957181528E-01  3.319880301674E-01
  3.388929828514E-01  3.459094617636E-01  3.530360937132E-01  3.602712266586E-01
  3.676129084370E-01  3.750588643517E-01  3.826064736702E-01  3.902527451158E-01
  3.979942914660E-01  4.058273034104E-01  4.137475228571E-01  4.217502159230E-01
  4.298301458870E-01  4.379815464320E-01  4.461980955496E-01  4.544728905305E-01
  4.627984245049E-01  4.711665650422E-01  4.795685353531E-01  4.879948986645E-01
  4.964355463577E-01  5.048796904607E-01  5.133158610807E-01  5.217319093319E-01
  5.301150162659E-01  5.384517082480E-01  5.467278791260E-01  5.549288194269E-01
  5.630392526780E-01  5.710433787885E-01  5.789249242471E-01  5.866671986961E-01
  5.942531572334E-01  6.016654675838E-01  6.088865810711E-01  6.158988061294E-01
  6.226843829215E-01  6.292255574976E-01  6.355046538475E-01  6.415041421737E-01
  6.472067017697E-01  6.525952770280E-01  6.576531253386E-01  6.623638559748E-01
  6.667114595113E-01  6.706803278562E-01  6.742552656198E-01  6.774214942530E-01
  6.801646511491E-01  6.824707866932E-01  6.843263630006E-01  6.857182587907E-01
  6.866337854186E-01  6.870607194883E-01  6.869873576406E-01  6.864025989776E-01
  6.852960601197E-01  6.836582270299E-01  6.814806464841E-01  6.787561583874E-01
  6.754791680830E-01  6.716459554112E-01  6.672550146499E-01  6.623074167292E-01
  6.568071824126E-01  6.507616526680E-01  6.441818404147E-01  6.370825416689E-01
  6.294815373426E-01  6.213982512994E-01  6.128536185536E-01  6.038704797902E-01
  5.944735480310E-01  5.846893597366E-01  5.745456322211E-01  5.640702738364E-01
  5.532911293530E-01  5.422360638301E-01  5.309327988182E-01  5.194088437950E-01
  5.076914160120E-01  4.958073649620E-01  4.837831002765E-01  4.716445232253E-01
  4.594169620181E-01  4.471251110972E-01  4.347929745999E-01  4.224438141513E-01
  4.101001011237E-01  3.977834734757E-01  3.855146972519E-01  3.733136327960E-01
  3.611992056986E-01  3.491893824698E-01  3.373011508960E-01  3.255505050130E-01
  3.139524345987E-01  3.025209190630E-01  2.912689255915E-01  2.802084113758E-01
  2.693503297462E-01  2.587046400076E-01  2.482803207627E-01  2.380853864990E-01
  2.281269072044E-01  2.184110307712E-01  2.089430079446E-01  1.997272195669E-01
  1.907672058714E-01  1.820656975800E-01  1.736246485615E-01  1.654452698134E-01
  1.575280645377E-01  1.498728640762E-01  1.424788645094E-01  1.353446636951E-01
  1.284682985585E-01  1.218472824489E-01  1.154786423877E-01  1.093589560489E-01
  1.034843883200E-01  9.785072730736E-02  9.245341966022E-02  8.728760510000E-02
  8.234815005303E-02  7.762968029621E-02  7.312661253596E-02  6.883318485131E-02
  6.474348594176E-02  6.085148312994E-02  5.715104907803E-02  5.363598718491E-02
  5.030005563924E-02  4.713699010862E-02  4.414052505698E-02  4.130441368271E-02
  3.862244647956E-02  3.608846842673E-02  3.369639482034E-02  3.144022576316E-02
  2.931405933461E-02  2.731210346728E-02  2.542868656078E-02  2.365826686780E-02
  2.199544069086E-02  2.043494943230E-02  1.897168554281E-02  1.760069741712E-02
  1.631719328812E-02  1.511654417248E-02  1.399428592337E-02  1.294612044673E-02
  1.196791613876E-02  1.105570760306E-02  1.020569470557E-02  9.414241025623E-03
  8.677871760380E-03  7.993271139148E-03  7.357279402426E-03  6.766889398948E-03
  6.219242851920E-03  5.711626343396E-03  5.241467063282E-03  4.806328366845E-03
  4.403905181844E-03  4.032019303596E-03  3.688614613394E-03  3.371752252807E-03
  3.079605783541E-03  2.810456359654E-03  2.562687936208E-03  2.334782535702E-03
  2.125315591082E-03  1.932951381647E-03  1.756438575800E-03  1.594605892439E-03
  1.446357890645E-03  1.310670895461E-03  1.186589065739E-03  1.073220608397E-03
  9.697341419849E-04  8.753552110412E-04  7.893629516058E-04  7.110869071212E-04
  6.399039930686E-04  5.752356078674E-04  5.165448868935E-04  4.633340959110E-04
  4.151421597590E-04  3.715423217830E-04  3.321399292456E-04  2.965703397721E-04
  2.644969437909E-04  2.356092978932E-04  2.096213640582E-04  1.862698497636E-04
  1.653126441063E-04  1.465273452013E-04  1.297098742883E-04  1.146731721542E-04
  1.012459736705E-04  8.927165643773E-05  7.860715972265E-05  6.912197006676E-05
  6.069717012843E-05  5.322454749776E-05  4.660576039048E-05  4.075155728331E-05
  3.558104769876E-05  3.102102148179E-05  2.700531403492E-05  2.347421509240E-05
  2.037391871955E-05  1.765601232013E-05  1.527700252509E-05  1.319787591963E-05
  1.138369264444E-05  9.803210981897E-06  8.428541108800E-06  7.234826266252E-06
  6.199949663640E-06  5.304265498887E-06  4.530352541140E-06  3.862788785304E-06
  3.287945750533E-06  2.793801057086E-06  2.369767977882E-06  2.006540722636E-06
  1.695954273647E-06  1.430857652914E-06  1.204999560261E-06  1.012925381346E-06
  8.498846226325E-07  7.117478875177E-07  5.949325635525E-07  4.963364450060E-07
  4.132785676700E-07  3.434465836852E-07  2.848500531469E-07  2.357790762148E-07
  1.947677343215E-07  1.605618517817E-07  1.320906296003E-07  1.084417415370E-07
  8.883951850187E-08  7.262588113739E-08  5.924371201489E-08  4.822238828004E-08
  3.916522287392E-08  3.173858770049E-08  2.566251538162E-08  2.070259762014E-08
  1.666301776729E-08  1.338057305813E-08  1.071955823128E-08  8.567396986748E-09
  6.830921056301E-09  5.433208661501E-09  4.310904912778E-09  3.411956352265E-09
  2.693700454658E-09  2.121258561881E-09  1.666187522259E-09  1.305351312512E-09
  1.019979216030E-09  7.948817834557E-10  6.177998769919E-10  4.788656586115E-10
  3.701574802646E-10  2.853333226427E-10  2.193297548800E-10  1.681153934143E-10
  1.284895627127E-10  9.791833849976E-11  7.440141677808E-11  5.636432724869E-11
  4.257142261102E-11  3.205584771299E-11  2.406334412482E-11  1.800729356616E-11
  1.343286275005E-11  9.988495727050E-12  7.403319117856E-12  5.469290583090E-12
  4.027140008642E-12  2.955333501948E-12  2.161438661650E-12  1.575391041512E-12
  1.144260816220E-12  8.281992108011E-13  5.973095128776E-13  4.292401650184E-13
  3.073398055611E-13  2.192480839086E-13  1.558231916594E-13  1.103286228408E-13
  7.781877432450E-14  5.467649815449E-14  3.826633724361E-14  2.667549737018E-14
  1.852110365864E-14  1.280733964265E-14  8.819977619022E-15  6.048825195139E-15
  4.130929617516E-15  2.809155574540E-15  1.902097154270E-15  1.282318587237E-15
  8.606818971682E-16  5.751084642877E-16  3.825549219990E-16  2.533092579174E-16
  1.669542789635E-16  1.095239114346E-16  7.150898015745E-17  4.646516275770E-17
  3.004583127021E-17  1.933325318874E-17  1.237836956412E-17  7.885570697273E-18
  4.997887280713E-18  3.151337110708E-18  1.976642154585E-18  0.000000000000E+00
  0.000000000000E+00  0.000000000000E+00  0.000000000000E+00  0.000000000000E+00
  0.000000000000E+00  0.000000000000E+00  0.000000000000E+00  0.000000000000E+00
  0.000000000000E+00  0.000000000000E+00  0.000000000000E+00  0.000000000000E+00
  0.000000000000E+00  0.000000000000E+00  0.000000000000E+00  0.000000000000E+00
  0.000000000000E+00  0.000000000000E+00  0.000000000000E+00  0.000000000000E+00
  0.000000000000E+00
</data>
</radfunc>
</valence-charge>
<pseudocore-charge matching-radius="1.18967787384"
 number-of-continuous-derivatives="4">
<annotation model-charge-form="Teter function with specified parameters" />
<radfunc>
<data npts="290">
  2.818824695166E+00  2.818729975608E+00  2.818446811011E+00  2.817974341784E+00
  2.817317336399E+00  2.816453246455E+00  2.815351648648E+00  2.814089773637E+00
  2.812670354918E+00  2.811014317314E+00  2.809146682263E+00  2.807115490115E+00
  2.804659005159E+00  2.802091500800E+00  2.799060178988E+00  2.796030073527E+00
  2.792537468249E+00  2.789223525227E+00  2.785494144934E+00  2.781297877030E+00
  2.776577068515E+00  2.772379621005E+00  2.767768746207E+00  2.762704478798E+00
  2.757143148676E+00  2.751037071122E+00  2.744334218372E+00  2.738881512581E+00
  2.733035545410E+00  2.726768853603E+00  2.720052194344E+00  2.712854451565E+00
  2.705142540880E+00  2.696881313825E+00  2.688033462238E+00  2.678559423799E+00
  2.668417289932E+00  2.657562717519E+00  2.649907501694E+00  2.641900351154E+00
  2.633526222851E+00  2.624769544696E+00  2.615614208876E+00  2.606043566552E+00
  2.596040424130E+00  2.585587041347E+00  2.574665131407E+00  2.563255863435E+00
  2.551339867550E+00  2.538897242855E+00  2.525907568708E+00  2.512349919616E+00
  2.498202884173E+00  2.483444588441E+00  2.468052724253E+00  2.452004582896E+00
  2.435277094702E+00  2.417846875092E+00  2.399690277629E+00  2.380783454696E+00
  2.361102426410E+00  2.340623158434E+00  2.319321649345E+00  2.297174028257E+00
  2.274156663376E+00  2.250246282201E+00  2.225420104069E+00  2.212656642216E+00
  2.199655985710E+00  2.186415492357E+00  2.172932580482E+00  2.159204734696E+00
  2.145229511898E+00  2.131004547519E+00  2.116527562007E+00  2.101796367563E+00
  2.086808875117E+00  2.071563101566E+00  2.056057177252E+00  2.040289353705E+00
  2.024258011628E+00  2.007961669139E+00  1.991398990267E+00  1.974568793690E+00
  1.957470061722E+00  1.940101949540E+00  1.922463794646E+00  1.904555126559E+00
  1.886375676724E+00  1.867925388641E+00  1.849204428183E+00  1.830213194113E+00
  1.810952328775E+00  1.791422728933E+00  1.771625556769E+00  1.751562250987E+00
  1.731234538032E+00  1.710644443374E+00  1.689794302854E+00  1.668686774047E+00
  1.647324847619E+00  1.625711858647E+00  1.603851497858E+00  1.581747822760E+00
  1.559405268610E+00  1.536828659189E+00  1.514023217327E+00  1.490994575132E+00
  1.467748783870E+00  1.444292323440E+00  1.420632111382E+00  1.396775511358E+00
  1.372730341048E+00  1.348504879376E+00  1.324107873008E+00  1.299548542049E+00
  1.274836584854E+00  1.249982181874E+00  1.224995998468E+00  1.199889186578E+00
  1.174673385200E+00  1.149360719548E+00  1.123963798834E+00  1.098495712568E+00
  1.072970025284E+00  1.047400769620E+00  1.021802437637E+00  9.961899703100E-01
  9.705787450913E-01  9.449845614729E-01  9.194236244565E-01  8.939125258627E-01
  8.684682234047E-01  8.431080174615E-01  8.178495254923E-01  7.927106540420E-01
  7.677095682963E-01  7.428646591548E-01  7.181945078047E-01  6.937178477864E-01
  6.694535245602E-01  6.454204525948E-01  6.216375700203E-01  5.981237908992E-01
  5.748979551950E-01  5.519787765338E-01  5.293847878776E-01  5.071342852510E-01
  4.852452696860E-01  4.637353875741E-01  4.426218696417E-01  4.219214687888E-01
  4.016503970590E-01  3.818242620343E-01  3.624580029762E-01  3.435658270579E-01
  3.251611460623E-01  3.072565139400E-01  2.898635656490E-01  2.729929577166E-01
  2.566543109835E-01  2.408561560081E-01  2.256058816208E-01  2.109096871285E-01
  1.967725386761E-01  1.831981302721E-01  1.701888499816E-01  1.577457517818E-01
  1.458685335584E-01  1.345555217013E-01  1.238036627273E-01  1.136085223249E-01
  1.039642921710E-01  9.486380482124E-02  8.629855691535E-02  7.825874087694E-02
  7.073328521165E-02  6.370990343019E-02  5.717515153566E-02  5.111449392343E-02
  4.551237744459E-02  4.035231328345E-02  3.561696619556E-02  3.128825054754E-02
  2.734743249481E-02  2.377523752972E-02  2.055196253255E-02  1.765759136352E-02
  1.507191294704E-02  1.277464072249E-02  1.074553227071E-02  8.964507874524E-03
  7.411766736862E-03  6.067899563509E-03  4.913996221074E-03  3.931747205490E-03
  3.103537703964E-03  2.412533104137E-03  1.842754898780E-03  1.379146052384E-03
  1.007625036617E-03  7.151279034562E-04  4.896379456699E-04  3.202026914765E-04
  1.969381901856E-04  1.110207643130E-04  5.466662641044E-05  2.109998046616E-05
  4.510442650532E-06  8.185852618443E-10  3.526458293629E-06  1.182756973892E-05
  2.235600187838E-05  3.319810348283E-05  4.299532038388E-05  5.086420808018E-05
  5.631750671796E-05  5.918785069323E-05  5.955556635994E-05  5.768185104842E-05
  5.394842894083E-05  4.880455008235E-05  4.272194521114E-05  3.615807977410E-05
  2.952777511001E-05  2.318299366446E-05  1.740032884945E-05  1.237550914547E-05
  8.224029891228E-06  4.986873269792E-06  2.640173851079E-06  1.107638027500E-06
  2.745325195908E-07  2.118727534450E-09  1.415220237631E-07  5.461812320182E-07
  1.082214051014E-06  1.636247470243E-06  2.120485227180E-06  2.475003314915E-06
  2.667465917378E-06  2.690625523417E-06  2.558102017968E-06  2.299018829182E-06
  1.952105829683E-06  1.559858701739E-06  1.163276982348E-06  7.975959170757E-07
  4.892917032085E-07  2.544891351471E-07  9.874965263049E-08  1.808069944043E-08
  8.968887664430E-10  3.058960661620E-08  8.833028115969E-08  1.557448912749E-07
  2.171498480098E-07  2.611241496690E-07  2.812980874994E-07  2.763509337452E-07
  2.493145996332E-07  2.063641054752E-07  1.553287554370E-07  1.041744336925E-07
  5.968691851020E-08  2.653333910887E-08  6.803309504089E-09  4.553975886508E-11
  0.000000000000E+00  0.000000000000E+00  0.000000000000E+00  0.000000000000E+00
  0.000000000000E+00  0.000000000000E+00  0.000000000000E+00  0.000000000000E+00
  0.000000000000E+00  0.000000000000E+00  0.000000000000E+00  0.000000000000E+00
  0.000000000000E+00  0.000000000000E+00  0.000000000000E+00  0.000000000000E+00
  0.000000000000E+00  0.000000000000E+00  0.000000000000E+00  0.000000000000E+00
  0.000000000000E+00  0.000000000000E+00
</data>
</radfunc>
</pseudocore-charge>
<semilocal-potentials set="scalar_relativistic">
<slps n="3" l="s" rc="1.60303201901" eref="-0.397364586851">
<radfunc>
<data npts="290">
  1.098441719727E+01  1.098300550466E+01  1.097878544481E+01  1.097174480855E+01
  1.096195565692E+01  1.094908353613E+01  1.093267754425E+01  1.091389049349E+01
  1.089276565203E+01  1.086812991891E+01  1.084036054899E+01  1.081017685391E+01
  1.077369855111E+01  1.073560228206E+01  1.069066585917E+01  1.064579461209E+01
  1.059413534065E+01  1.054518137546E+01  1.049016648349E+01  1.042836423772E+01
  1.035896862509E+01  1.029738860414E+01  1.022988109203E+01  1.015590803490E+01
  1.007489057457E+01  9.986208032774E+00  9.889197488453E+00  9.810551893462E+00
  9.726513804340E+00  9.636758604919E+00  9.540950318175E+00  9.438742808744E+00
  9.329781365671E+00  9.213704722893E+00  9.090147578442E+00  8.958743675620E+00
  8.819129509989E+00  8.670948724235E+00  8.567231709930E+00  8.459456299594E+00
  8.347529232702E+00  8.231362650605E+00  8.110875117115E+00  7.985992712823E+00
  7.856650201073E+00  7.722792262029E+00  7.584374789512E+00  7.441366243355E+00
  7.293749047844E+00  7.141521024403E+00  6.984696844043E+00  6.823309482335E+00
  6.657411656621E+00  6.487077222143E+00  6.312402500550E+00  6.133507511106E+00
  5.950537071780E+00  5.763661734495E+00  5.573078516146E+00  5.379011384728E+00
  5.181711458233E+00  4.981456872970E+00  4.778552277814E+00  4.573327911898E+00
  4.366138225425E+00  4.157360007065E+00  3.947389986772E+00  3.842086768360E+00
  3.736641890348E+00  3.631109148546E+00  3.525542931571E+00  3.419998080458E+00
  3.314529739800E+00  3.209193200650E+00  3.104043735578E+00  2.999136426264E+00
  2.894525984204E+00  2.790266565102E+00  2.686411577697E+00  2.583013487860E+00
  2.480123618895E+00  2.377791949104E+00  2.276066907825E+00  2.174995171241E+00
  2.074621459391E+00  1.974988335986E+00  1.876136012703E+00  1.778102159807E+00
  1.680921725061E+00  1.584626762984E+00  1.489246276695E+00  1.394806074590E+00
  1.301328644293E+00  1.208833046327E+00  1.117334830026E+00  1.026845974267E+00
  9.373748555773E-01  8.489262461520E-01  7.615013442813E-01  6.750978395370E-01
  5.897100149758E-01  5.053288883615E-01  4.219423941905E-01  3.395356079875E-01
  2.580910139298E-01  1.775888164477E-01  9.800729590566E-02  1.932320789657E-02
 -5.848777499470E-02 -1.354505808343E-01 -2.115902180528E-01 -2.869312207821E-01
 -3.614970642822E-01 -4.353095559074E-01 -5.083882080381E-01 -5.807496005299E-01
 -6.524067410778E-01 -7.233684332789E-01 -7.936386624772E-01 -8.632160114748E-01
 -9.320931176399E-01 -1.000256184910E+00 -1.067684563840E+00 -1.134350413612E+00
 -1.200218459803E+00 -1.265245861675E+00 -1.329382202128E+00 -1.392569612743E+00
 -1.454743045044E+00 -1.515830697576E+00 -1.575754606330E+00 -1.634431403592E+00
 -1.691773247370E+00 -1.747688920206E+00 -1.802085092351E+00 -1.854867740056E+00
 -1.905943705139E+00 -1.955222376997E+00 -2.002617472999E+00 -2.048048887791E+00
 -2.091444576438E+00 -2.132742430900E+00 -2.171892103922E+00 -2.208856729497E+00
 -2.243614484621E+00 -2.276159933452E+00 -2.306505092455E+00 -2.334680153975E+00
 -2.360733806226E+00 -2.384733090264E+00 -2.406762739476E+00 -2.426923954750E+00
 -2.445332579052E+00 -2.462116648894E+00 -2.477413317119E+00 -2.491365161670E+00
 -2.504115918242E+00 -2.515805700683E+00 -2.526565801083E+00 -2.536513190866E+00