<?xml version="1.0" encoding="UTF-8" ?>
<psml version="1.1" energy_unit="hartree" length_unit="bohr"
 uuid="b4e86410-be41-11e7-5188-69355fef58ef"
 xmlns="http://esl.cecam.org/PSML/ns/1.1">
<provenance creator="ONCVPSP-3.3.0+psml-3.3.0-73 (scalar-relativistic)"
 date="2017-10-31">
<annotation action="semilocal-pseudopotential-generation"
 action-cont="projectors-generation" />
<input-file name="oncvpsp-input">
<![CDATA[# atsym z nc nv iexc psfile
Ca 20 3 3 4 upf
# n l f
1 0 2.0
2 0 2.0
2 1 6.0
3 0 2.0
3 1 6.0
4 0 2.0
# lmax
2
# l rc ep ncon nbas qcut
0 1.45 0.0 4 8 8.2
1 1.45 0.0 4 8 8.4
2 1.85 0.0 4 8 8.0
# lloc lpopt rc5 dvloc0
4 5 1.3 0.0
# l nproj debl
0 2 2.0
1 2 2.0
2 2 2.0
# icmod fcfact
3 6 1.28
# epsh1 epsh2 depsh
-12.0 12.0 0.02
# rlmax drl
4.0 0.01
 0
]]>
</input-file>
</provenance>
<pseudo-atom-spec atomic-label="Ca" atomic-number="20" z-pseudo="10"
 flavor="Hamann&apos;s oncvpsp" relativity="scalar" spin-dft="no"
 core-corrections="yes">
<annotation pseudo-energy="-36.8248508297" />
<exchange-correlation>
<annotation oncvpsp-xc-code="4" oncvpsp-xc-type="GGA -- Perdew-Burke-Ernzerhof" />
<libxc-info number-of-functionals="2">
<functional name="Perdew, Burke &amp; Ernzerhof (GGA)" type="exchange" id="101" />
<functional name="Perdew, Burke &amp; Ernzerhof (GGA)" type="correlation"
 id="130" />
</libxc-info>
</exchange-correlation>
<valence-configuration total-valence-charge="10">
<shell n="3" l="s" occupation="2" />
<shell n="3" l="p" occupation="6" />
<shell n="4" l="s" occupation="2" />
</valence-configuration>
</pseudo-atom-spec>
<grid npts="457">
<annotation type="sampled from oncvpsp log grid"
 recipe="r(i:1..N) = r1*exp(a*(i-1)) + r=0; resampled"
 recipe-cont="r1: scale; a: step" scale="0.250000000000E-04"
 step="0.119285708653E-01" delta="0.500000000000E-02" rmax="44.2219702658" />
<grid-data>
  0.000000000000E+00  5.049729012381E-03  1.008643741373E-02  1.513126450836E-02
  2.014686717874E-02  2.527186313341E-02  3.058619555721E-02  3.571676558720E-02
  4.072468755361E-02  4.588417062408E-02  5.108430610452E-02  5.619938960492E-02
  6.182664761078E-02  6.721083426378E-02  7.306390394756E-02  7.848487098793E-02
  8.430804598688E-02  8.948939793739E-02  9.498918222399E-02  1.008269688650E-01
  1.070235306009E-01  1.122538703661E-01  1.177398217141E-01  1.234938766215E-01
  1.295291375591E-01  1.358593473281E-01  1.424989203530E-01  1.476906872574E-01
  1.530716095851E-01  1.586485789732E-01  1.644287381471E-01  1.704194900681E-01
  1.766285074152E-01  1.830637424114E-01  1.897334370091E-01  1.966461334456E-01
  2.038106851838E-01  2.112362682513E-01  2.163363567119E-01  2.215595817084E-01
  2.269089162491E-01  2.323874051231E-01  2.379981666323E-01  2.437443943675E-01
  2.496293590251E-01  2.556564102694E-01  2.618289786390E-01  2.681505774992E-01
  2.746248050424E-01  2.812553463353E-01  2.880459754172E-01  2.950005574477E-01
  3.021230509067E-01  3.094175098478E-01  3.168880862056E-01  3.245390321589E-01
  3.323747025514E-01  3.403995573698E-01  3.486181642829E-01  3.570352012414E-01
  3.656554591401E-01  3.744838445456E-01  3.835253824883E-01  3.927852193231E-01
  4.022686256585E-01  4.119809993564E-01  4.219278686048E-01  4.269910030281E-01
  4.321148950644E-01  4.373002738052E-01  4.425478770908E-01  4.478584516159E-01
  4.532327530353E-01  4.586715460717E-01  4.641756046246E-01  4.697457118801E-01
  4.753826604227E-01  4.810872523477E-01  4.868602993759E-01  4.927026229684E-01
  4.986150544440E-01  5.045984350974E-01  5.106536163185E-01  5.167814597144E-01
  5.229828372309E-01  5.292586312777E-01  5.356097348530E-01  5.420370516713E-01
  5.485414962913E-01  5.551239942468E-01  5.617854821778E-01  5.685269079639E-01
  5.753492308595E-01  5.822534216298E-01  5.892404626894E-01  5.963113482416E-01
  6.034670844205E-01  6.107086894336E-01  6.180371937068E-01  6.254536400313E-01
  6.329590837116E-01  6.405545927162E-01  6.482412478288E-01  6.560201428027E-01
  6.638923845163E-01  6.718590931305E-01  6.799214022481E-01  6.880804590751E-01
  6.963374245840E-01  7.046934736790E-01  7.131497953631E-01  7.217075929075E-01
  7.303680840224E-01  7.391325010307E-01  7.480020910430E-01  7.569781161355E-01
  7.660618535292E-01  7.752545957715E-01  7.845576509208E-01  7.939723427318E-01
  8.035000108446E-01  8.131420109747E-01  8.228997151064E-01  8.327745116877E-01
  8.427678058280E-01  8.528810194979E-01  8.631155917319E-01  8.734729788327E-01
  8.839546545787E-01  8.945621104336E-01  9.052968557588E-01  9.161604180279E-01
  9.271543430442E-01  9.382801951608E-01  9.495395575027E-01  9.609340321927E-01
  9.724652405790E-01  9.841348234660E-01  9.959444413476E-01  1.007895774644E+00
  1.019990523939E+00  1.032230410227E+00  1.044617175149E+00  1.057152581251E+00
  1.069838412226E+00  1.082676473173E+00  1.095668590851E+00  1.108816613941E+00
  1.122122413309E+00  1.135587882268E+00  1.149214936856E+00  1.163005516098E+00
  1.176961582291E+00  1.191085121278E+00  1.205378142734E+00  1.219842680447E+00
  1.234480792612E+00  1.249294562123E+00  1.264286096869E+00  1.279457530031E+00
  1.294811020392E+00  1.310348752636E+00  1.326072937668E+00  1.341985812920E+00
  1.358089642675E+00  1.374386718387E+00  1.390879359008E+00  1.407569911316E+00
  1.424460750252E+00  1.441554279255E+00  1.458852930606E+00  1.476359165773E+00
  1.494075475762E+00  1.512004381471E+00  1.530148434049E+00  1.548510215258E+00
  1.567092337841E+00  1.585897445895E+00  1.604928215246E+00  1.624187353828E+00
  1.643677602074E+00  1.663401733299E+00  1.683362554099E+00  1.703562904748E+00
  1.724005659605E+00  1.744693727520E+00  1.765630052251E+00  1.786817612878E+00
  1.808259424232E+00  1.829958537323E+00  1.851918039771E+00  1.874141056248E+00
  1.896630748923E+00  1.919390317910E+00  1.942423001725E+00  1.965732077746E+00
  1.989320862679E+00  2.013192713031E+00  2.037351025587E+00  2.061799237894E+00
  2.086540828749E+00  2.111579318694E+00  2.136918270518E+00  2.162561289764E+00
  2.188512025242E+00  2.214774169545E+00  2.241351459579E+00  2.268247677094E+00
  2.295466649219E+00  2.323012249010E+00  2.350888395998E+00  2.379099056750E+00
  2.407648245431E+00  2.436540024376E+00  2.465778504669E+00  2.495367846725E+00
  2.525312260885E+00  2.555616008016E+00  2.586283400112E+00  2.617318800913E+00
  2.648726626524E+00  2.680511346043E+00  2.712677482195E+00  2.745229611982E+00
  2.778172367325E+00  2.811510435733E+00  2.845248560962E+00  2.879391543694E+00
  2.913944242218E+00  2.948911573124E+00  2.984298512002E+00  3.020110094146E+00
  3.056351415276E+00  3.093027632259E+00  3.130143963846E+00  3.167705691412E+00
  3.205718159709E+00  3.244186777626E+00  3.283117018957E+00  3.322514423185E+00
  3.362384596263E+00  3.402733211418E+00  3.443566009955E+00  3.484888802075E+00
  3.526707467700E+00  3.569027957312E+00  3.611856292800E+00  3.655198568313E+00
  3.699060951133E+00  3.743449682547E+00  3.788371078737E+00  3.833831531682E+00
  3.879837510062E+00  3.926395560183E+00  3.973512306905E+00  4.021194454588E+00
  4.069448788043E+00  4.118282173500E+00  4.167701559582E+00  4.217713978297E+00
  4.268326546036E+00  4.319546464589E+00  4.371381022164E+00  4.423837594430E+00
  4.476923645563E+00  4.530646729309E+00  4.585014490061E+00  4.640034663942E+00
  4.695715079909E+00  4.752063660868E+00  4.809088424799E+00  4.866797485896E+00
  4.925199055727E+00  4.984301444396E+00  5.044113061728E+00  5.104642418469E+00
  5.165898127491E+00  5.227888905021E+00  5.290623571881E+00  5.354111054743E+00
  5.418360387400E+00  5.483380712049E+00  5.549181280594E+00  5.615771455961E+00
  5.683160713432E+00  5.751358641994E+00  5.820374945698E+00  5.890219445046E+00
  5.960902078386E+00  6.032432903327E+00  6.104822098167E+00  6.178079963345E+00
  6.252216922905E+00  6.327243525980E+00  6.403170448292E+00  6.480008493671E+00
  6.557768595595E+00  6.636461818742E+00  6.716099360567E+00  6.796692552894E+00
  6.878252863529E+00  6.960791897891E+00  7.044321400666E+00  7.128853257474E+00
  7.214399496564E+00  7.300972290522E+00  7.388583958009E+00  7.477246965505E+00
  7.566973929091E+00  7.657777616240E+00  7.749670947635E+00  7.842666999006E+00
  7.936779002994E+00  8.032020351030E+00  8.128404595243E+00  8.225945450386E+00
  8.324656795790E+00  8.424552677340E+00  8.525647309468E+00  8.627955077181E+00
  8.731490538108E+00  8.836268424565E+00  8.942303645660E+00  9.049611289408E+00
  9.158206624881E+00  9.268105104379E+00  9.379322365632E+00  9.491874234019E+00
  9.605776724827E+00  9.721046045525E+00  9.837698598072E+00  9.955750981249E+00
  1.007521999302E+01  1.019612263294E+01  1.031847610454E+01  1.044229781779E+01
  1.056760539160E+01  1.069441665630E+01  1.082274965618E+01  1.095262265205E+01
  1.108405412388E+01  1.121706277336E+01  1.135166752664E+01  1.148788753696E+01
  1.162574218741E+01  1.176525109366E+01  1.190643410678E+01  1.204931131606E+01
  1.219390305185E+01  1.234022988848E+01  1.248831264714E+01  1.263817239890E+01
  1.278983046769E+01  1.294330843330E+01  1.309862813450E+01  1.325581167212E+01
  1.341488141218E+01  1.357585998913E+01  1.373877030900E+01  1.390363555271E+01
  1.407047917934E+01  1.423932492949E+01  1.441019682864E+01  1.458311919059E+01
  1.475811662087E+01  1.493521402032E+01  1.511443658857E+01  1.529580982763E+01
  1.547935954556E+01  1.566511186011E+01  1.585309320243E+01  1.604333032086E+01
  1.623585028471E+01  1.643068048813E+01  1.662784865398E+01  1.682738283783E+01
  1.702931143189E+01  1.723366316907E+01  1.744046712710E+01  1.764975273262E+01
  1.786154976541E+01  1.807588836260E+01  1.829279902295E+01  1.851231261123E+01
  1.873446036256E+01  1.895927388691E+01  1.918678517355E+01  1.941702659564E+01
  1.965003091478E+01  1.988583128576E+01  2.012446126119E+01  2.036595479633E+01
  2.061034625388E+01  2.085767040893E+01  2.110796245384E+01  2.136125800328E+01
  2.161759309932E+01  2.187700421651E+01  2.213952826711E+01  2.240520260632E+01
  2.267406503759E+01  2.294615381804E+01  2.322150766386E+01  2.350016575583E+01
  2.378216774490E+01  2.406755375783E+01  2.435636440293E+01  2.464864077576E+01
  2.494442446507E+01  2.524375755865E+01  2.554668264936E+01  2.585324284115E+01
  2.616348175524E+01  2.647744353631E+01  2.679517285874E+01  2.711671493305E+01
  2.744211551224E+01  2.777142089839E+01  2.810467794917E+01  2.844193408456E+01
  2.878323729358E+01  2.912863614110E+01  2.947817977479E+01  2.983191793209E+01
  3.018990094727E+01  3.055217975864E+01  3.091880591575E+01  3.128983158673E+01
  3.166530956578E+01  3.204529328056E+01  3.242983679993E+01  3.281899484153E+01
  3.321282277963E+01  3.361137665298E+01  3.401471317282E+01  3.442288973089E+01
  3.483596440767E+01  3.525399598056E+01  3.567704393232E+01  3.610516845951E+01
  3.653843048103E+01  3.697689164680E+01  3.742061434656E+01  3.786966171872E+01
  3.832409765934E+01  3.878398683126E+01  3.924939467323E+01  3.972038740931E+01
  4.019703205822E+01  4.067939644292E+01  4.116754920023E+01  4.166155979064E+01
  4.216149850812E+01  4.266743649022E+01  4.317944572810E+01  4.369759907684E+01
  4.422197026576E+01
</grid-data>
</grid>
<valence-charge total-charge="10" is-unscreening-charge="yes"
 rescaled-to-z-pseudo="no">
<radfunc>
<data npts="457">
  6.139737230096E-01  6.149850658742E-01  6.180082729557E-01  6.230519060021E-01
  6.300640478276E-01  6.392838543892E-01  6.510336964110E-01  6.644873399121E-01
  6.796133126860E-01  6.972509572082E-01  7.171294693547E-01  7.387334446767E-01
  7.648393974964E-01  7.920999749973E-01  8.242518473754E-01  8.563546324178E-01
  8.933123417073E-01  9.283346628075E-01  9.676949320187E-01  1.011916014796E+00
  1.061579815686E+00  1.105661733976E+00  1.154002514341E+00  1.206995969250E+00
  1.265068481425E+00  1.328680824197E+00  1.398329862949E+00  1.454848288100E+00
  1.515301959701E+00  1.579943145984E+00  1.649036738235E+00  1.722860257535E+00
  1.801703722099E+00  1.885869344508E+00  1.975671023116E+00  2.071433586256E+00
  2.173491741469E+00  2.282188674895E+00  2.358514064899E+00  2.438050270148E+00
  2.520902650216E+00  2.607176658306E+00  2.696977363810E+00  2.790408908486E+00
  2.887573889758E+00  2.988572664225E+00  3.093502564044E+00  3.202457018451E+00
  3.315524572292E+00  3.432787793123E+00  3.554322058153E+00  3.680194212135E+00
  3.810461087224E+00  3.945167875901E+00  4.084346348321E+00  4.228012905903E+00
  4.376166463736E+00  4.528786155466E+00  4.685828855780E+00  4.847226517563E+00
  5.012883323270E+00  5.182672653180E+00  5.356433877020E+00  5.533968980119E+00
  5.715039040787E+00  5.899360582217E+00  6.086601829851E+00  6.181199523371E+00
  6.276378914006E+00  6.372083254182E+00  6.468252067619E+00  6.564821034662E+00
  6.661721880271E+00  6.758882265350E+00  6.856225682206E+00  6.953671354950E+00
  7.051134145731E+00  7.148524467755E+00  7.245748206094E+00  7.342706647362E+00
  7.439296419396E+00  7.535409442131E+00  7.630932890943E+00  7.725749173759E+00
  7.819735923307E+00  7.912766005939E+00  8.004707548470E+00  8.095423984559E+00
  8.184774122150E+00  8.272612233544E+00  8.358788169665E+00  8.443147500095E+00
  8.525531680447E+00  8.605778248592E+00  8.683721051255E+00  8.759190502397E+00
  8.832013874746E+00  8.902015625730E+00  8.969017758946E+00  9.032840222149E+00
  9.093301342593E+00  9.150218300324E+00  9.203407639855E+00  9.252685820344E+00
  9.297869804171E+00  9.338777683472E+00  9.375229343862E+00  9.407047164237E+00
  9.434056751137E+00  9.456087705758E+00  9.472974421279E+00  9.484556907708E+00
  9.490681641009E+00  9.491202432795E+00  9.485981316383E+00  9.474889444576E+00
  9.457807994020E+00  9.434629070553E+00  9.405256609555E+00  9.369607264836E+00
  9.327611279314E+00  9.279213330325E+00  9.224373342191E+00  9.163067258425E+00
  9.095287765799E+00  9.021044962437E+00  8.940366962074E+00  8.853300426713E+00
  8.759911020082E+00  8.660283774536E+00  8.554523364410E+00  8.442754279277E+00
  8.325120891054E+00  8.201787409563E+00  8.072937721806E+00  7.938775111006E+00
  7.799521852290E+00  7.655418682784E+00  7.506724144838E+00  7.353713802085E+00
  7.196679329037E+00  7.035927475979E+00  6.871778911956E+00  6.704566949719E+00
  6.534636157542E+00  6.362340863912E+00  6.188043562101E+00  6.012113222752E+00
  5.834923523604E+00  5.656851006572E+00  5.478273173459E+00  5.299566532628E+00
  5.121104610048E+00  4.943255939203E+00  4.766382045420E+00  4.590835441232E+00
  4.416957650400E+00  4.245077279177E+00  4.075508154236E+00  3.908547547404E+00
  3.744474507826E+00  3.583548322473E+00  3.426007125839E+00  3.272066679311E+00
  3.121919339979E+00  2.975733237474E+00  2.833651675412E+00  2.695792771629E+00
  2.562249348558E+00  2.433089081741E+00  2.308354910692E+00  2.188066344430E+00
  2.072223606228E+00  1.960813417820E+00  1.853810428307E+00  1.751177356017E+00
  1.652866109906E+00  1.558818555078E+00  1.468967333002E+00  1.383236668606E+00
  1.301543166488E+00  1.223796593081E+00  1.149900641813E+00  1.079753678552E+00
  1.013249464931E+00  9.502778573585E-01  8.907254797681E-01  8.344763683939E-01
  7.814125870813E-01  7.314148118615E-01  6.843628837390E-01  6.401363288498E-01
  5.986148453630E-01  5.596787567023E-01  5.232094308738E-01  4.890896658874E-01
  4.572040414552E-01  4.274392373465E-01  3.996843189571E-01  3.738309908222E-01
  3.497738189606E-01  3.274104230670E-01  3.066416396913E-01  2.873716576239E-01
  2.695081267692E-01  2.529622418199E-01  2.376488020397E-01  2.234862484386E-01
  2.103966795751E-01  1.983058471594E-01  1.871431325783E-01  1.768415054360E-01
  1.673374652276E-01  1.585709673703E-01  1.504853350259E-01  1.430271584793E-01
  1.361461842704E-01  1.297951967724E-01  1.239298953707E-01  1.185087706963E-01
  1.134929833626E-01  1.088462482228E-01  1.045347262778E-01  1.005269251128E-01
  9.679360734586E-02  9.330770533071E-02  9.004423954850E-02  8.698023790816E-02
  8.409465353611E-02  8.136827941236E-02  7.878365915543E-02  7.632499414129E-02
  7.397804780610E-02  7.173004836835E-02  6.956959133168E-02  6.748654305984E-02
  6.547194652653E-02  6.351793010279E-02  6.161762000195E-02  5.976505678545E-02
  5.795511615504E-02  5.618343412018E-02  5.444633653007E-02  5.274077289070E-02
  5.106425434280E-02  4.941479564869E-02  4.779086102141E-02  4.619131362248E-02
  4.461536855338E-02  4.306254916784E-02  4.153264653595E-02  4.002568189590E-02
  3.854187193434E-02  3.708159674201E-02  3.564537029646E-02  3.423381332940E-02
  3.284762844158E-02  3.148757733433E-02  3.015446003304E-02  2.884909598519E-02
  2.757230692312E-02  2.632490139082E-02  2.510766084309E-02  2.392132723595E-02
  2.276659203732E-02  2.164408659758E-02  2.055437382916E-02  1.949794115302E-02
  1.847519467652E-02  1.748645457161E-02  1.653195162414E-02  1.561182492406E-02
  1.472612066227E-02  1.387479199374E-02  1.305769991817E-02  1.227461511964E-02
  1.152522070023E-02  1.080911571322E-02  1.012581943435E-02  9.474776255574E-03
  8.855361107465E-03  8.266885305843E-03  7.708602718111E-03  7.179716146516E-03
  6.679383829483E-03  6.206725968017E-03  5.760831191597E-03  5.340762886599E-03
  4.945565319768E-03  4.574269499081E-03  4.225898724404E-03  3.899473790137E-03
  3.594017811494E-03  3.308560654887E-03  3.042142961023E-03  2.793819756616E-03
  2.562663657064E-03  2.347767668042E-03  2.148247598609E-03  1.963244102359E-03
  1.791924366154E-03  1.633483468348E-03  1.487145430049E-03  1.352163984018E-03
  1.227823086304E-03  1.113437195723E-03  1.008351345942E-03  9.119410341267E-04
  8.236119491544E-04  7.427995610746E-04  6.689685920981E-04  6.016123878152E-04
  5.402522057064E-04  4.844364363358E-04  4.337397709519E-04  3.877623276047E-04
  3.461287463447E-04  3.084872626366E-04  2.745087668039E-04  2.438858561463E-04
  2.163318853372E-04  1.915800198171E-04  1.693822961534E-04  1.495086927082E-04
  1.317462134599E-04  1.158979874159E-04  1.017823857385E-04  8.923215845626E-05
  7.809359243365E-05  6.822569211025E-05  5.949938438187E-05  5.179674886959E-05
  4.501027470018E-05  3.904214479608E-05  3.380354854215E-05  2.921402355630E-05
  2.520082714239E-05  2.169833784762E-05  1.864748738362E-05  1.599522300508E-05
  1.369400027285E-05  1.170130596546E-05  9.979210744552E-06  8.493951030479E-06
  7.215539405668E-06  6.117402737543E-06  5.176047101512E-06  4.370748488544E-06
  3.683268202002E-06  3.097591784646E-06  2.599690269002E-06  2.177302511909E-06
  1.819737356283E-06  1.517694358858E-06  1.263101830716E-06  1.048970956437E-06
  8.692647863314E-07  7.187809330842E-07  5.930468477687E-07  4.882265993857E-07
  4.010381354307E-07  3.286800574244E-07  2.687670037233E-07  2.192727913059E-07
  1.784805277521E-07  1.449389635551E-07  1.174244125921E-07  9.490762452124E-08
  7.652504663039E-08  6.155396392920E-08  4.939105478683E-08  3.953394502572E-08
  3.156538597624E-08  2.513972154204E-08  1.997134583475E-08  1.582488645282E-08
  1.250687909769E-08  9.858727047436E-09  7.750764180336E-09  6.077262905214E-09
  4.752248672116E-09  3.706000868416E-09  2.882136019254E-09  2.235183472079E-09
  1.728576314825E-09  1.332991312384E-09  1.024981295675E-09  7.858518432626E-10
  6.007413893523E-10  4.578701972840E-10  3.479290679346E-10  2.635833117033E-10
  1.990714957567E-10  1.498818705681E-10  1.124922585176E-10  8.416162128107E-11
  6.276357314571E-11  4.665382841116E-11  3.456501032166E-11  2.552344826793E-11
  1.878358567051E-11  1.377644455891E-11  1.006927163355E-11  7.334047949352E-12
  5.323000321773E-12  3.849624186004E-12  2.774029406540E-12  1.991664650662E-12
  1.424672673635E-12  1.015286809399E-12  7.208052802930E-13  5.097805757823E-13
  3.591410136334E-13  2.520247269142E-13  1.761560255774E-13  1.226330609305E-13
  8.502616660883E-14  5.870993273443E-14  4.037041729375E-14  2.764305373352E-14
  1.884768873730E-14  1.279550391453E-14  8.648912978874E-15  5.820333271252E-15
  3.899360974496E-15  2.600609096773E-15  1.726510650097E-15  1.140912144856E-15
  7.504120826264E-16  4.912332177804E-16  3.200304107550E-16  2.074843773115E-16
  1.338581733131E-16  8.592986360646E-17  5.488544190455E-17  3.487849762672E-17
  2.205054797962E-17  1.386803647535E-17  8.675957832518E-18  5.398827819027E-18
  3.341437360261E-18  2.056793890685E-18  1.259050892771E-18  7.664114314907E-19
  4.638927706042E-19  2.791776112737E-19  1.670401880351E-19  9.935927956768E-20
  5.875059630102E-20  3.453038437632E-20  2.017178479967E-20  1.171140544905E-20
  6.757147766007E-21  0.000000000000E+00  0.000000000000E+00  0.000000000000E+00
  0.000000000000E+00
</data>
</radfunc>
</valence-charge>
<pseudocore-charge matching-radius="0.625453640031"
 number-of-continuous-derivatives="4">
<annotation model-charge-form="Teter function with specified parameters" />
<radfunc>
<data npts="256">
  5.437214644237E+01  5.436531218298E+01  5.434488464459E+01  5.431081236605E+01
  5.426345656594E+01  5.420121761643E+01  5.412194242266E+01  5.403123087290E+01
  5.392931881974E+01  5.381058470286E+01  5.367689489310E+01  5.353175619894E+01
  5.335658830153E+01  5.317392462626E+01  5.295881589941E+01  5.274439108526E+01
  5.249797764675E+01  5.226490096111E+01  5.200345619375E+01  5.171035559661E+01
  5.138197464697E+01  5.109120362631E+01  5.077309735791E+01  5.042528118790E+01
  5.004521506929E+01  4.963019099059E+01  4.917733269832E+01  4.881103649424E+01
  4.842040829630E+01  4.800405755470E+01  4.756054903734E+01  4.708840730050E+01
  4.658612241852E+01  4.605215715045E+01  4.548495573532E+01  4.488295452126E+01
  4.424459464448E+01  4.356833698312E+01  4.309570040669E+01  4.260511991527E+01
  4.209617800825E+01  4.156847469427E+01  4.102163102347E+01  4.045529291246E+01
  3.986913527048E+01  3.926286643281E+01  3.863623290507E+01  3.798902441890E+01
  3.732107929549E+01  3.663229010933E+01  3.592260963913E+01  3.519205708687E+01
  3.444072453914E+01  3.366878363717E+01  3.287649241313E+01  3.206420224061E+01
  3.123236483654E+01  3.038153924012E+01  2.951239868159E+01  2.862573724049E+01
  2.772247617858E+01  2.680366981817E+01  2.587051082129E+01  2.492433471049E+01
  2.396662345696E+01  2.299900794846E+01  2.202326913670E+01  2.153295101318E+01
  2.104133765406E+01  2.054869342694E+01  2.005529168202E+01  1.956141457433E+01
  1.906735285006E+01  1.857340559522E+01  1.807987994524E+01  1.758709075378E+01
  1.709536021943E+01  1.660501746886E+01  1.611639809531E+01  1.562984365118E+01
  1.514570109403E+01  1.466432218498E+01  1.418606283916E+01  1.371128242789E+01
  1.324034303251E+01  1.277360865003E+01  1.231144435126E+01  1.185421539222E+01
  1.140228627998E+01  1.095601979468E+01  1.051577596951E+01  1.008191103132E+01
  9.654776304445E+00  9.234717081288E+00  8.822071463370E+00  8.417169177133E+00
  8.020330369333E+00  7.631864387310E+00  7.252068549974E+00  6.881226915836E+00
  6.519609054914E+00  6.167468831852E+00  5.825043208018E+00  5.492551070841E+00
  5.170192098972E+00  4.858145672289E+00  4.556569836012E+00  4.265600328450E+00
  3.985349682093E+00  3.715906407807E+00  3.457334271923E+00  3.209671675887E+00
  2.972931147937E+00  2.747098955929E+00  2.532134849987E+00  2.327971943076E+00
  2.134516736838E+00  1.951649299203E+00  1.779223599238E+00  1.617068003583E+00
  1.464985937463E+00  1.322756711894E+00  1.190136517068E+00  1.066859580263E+00
  9.526394847626E-01  8.471706444502E-01  7.501299267006E-01  6.611784142399E-01
  5.799632945773E-01  5.061198635991E-01  4.392736279350E-01  3.790424888039E-01
  3.250389882656E-01  2.768725971831E-01  2.341520227793E-01  1.964875124917E-01
  1.634931299423E-01  1.347889782644E-01  1.100033458271E-01  8.877474958379E-02
  7.075385187893E-02  5.560522759810E-02  4.300896005151E-02  3.266204593989E-02
  2.427959216237E-02  1.759579006412E-02  1.236465595802E-02  8.360530343916E-03
  5.378332133457E-03  3.233568297937E-03  1.762103608375E-03  8.196994378188E-04
  2.813348434864E-04  4.032723146124E-05  7.273716213761E-06  1.088377074795E-04
  2.864081772680E-04  4.946613765978E-04  7.000563929985E-04  8.792967898591E-04
  1.017790591454E-03  1.108140041165E-03  1.148690860720E-03  1.142168200926E-03
  1.094423156817E-03  1.013309711677E-03  9.077073954436E-04  7.866999420091E-04
  6.589149797864E-04  5.320244813228E-04  4.124005327179E-04  3.049161661454E-04
  2.128767257477E-04  1.380636879398E-04  8.087018354192E-05  4.050578585881E-05
  1.524750512311E-05  2.714383073853E-06  1.445736181093E-07  4.656231813852E-06
  1.347676529395E-05  2.412883375066E-05  3.456567975084E-05  4.325268026049E-05
  4.919615682332E-05  5.192421671919E-05  5.142748854937E-05  4.806987942895E-05
  4.248079318607E-05  3.544055680068E-05  2.777013029375E-05  2.023462534995E-05
  1.346790284613E-05  7.922789354671E-06  3.848515989042E-06  1.294122385086E-06
  1.340547556570E-07  1.102517017460E-07  8.838241049522E-07  2.089084277629E-06
  3.383161498648E-06  4.485660891886E-06  5.204602842267E-06  5.446981080975E-06
  5.214425650480E-06  4.586378534412E-06  3.694646141482E-06  2.694012139586E-06
  1.733694981404E-06  9.338380201551E-07  3.700476942219E-07  6.745095566250E-08
  0.000000000000E+00  0.000000000000E+00  0.000000000000E+00  0.000000000000E+00
  0.000000000000E+00  0.000000000000E+00  0.000000000000E+00  0.000000000000E+00
  0.000000000000E+00  0.000000000000E+00  0.000000000000E+00  0.000000000000E+00
  0.000000000000E+00  0.000000000000E+00  0.000000000000E+00  0.000000000000E+00
  0.000000000000E+00  0.000000000000E+00  0.000000000000E+00  0.000000000000E+00
  0.000000000000E+00  0.000000000000E+00  0.000000000000E+00  0.000000000000E+00
  0.000000000000E+00  0.000000000000E+00  0.000000000000E+00  0.000000000000E+00
  0.000000000000E+00  0.000000000000E+00  0.000000000000E+00  0.000000000000E+00
  0.000000000000E+00  0.000000000000E+00  0.000000000000E+00  0.000000000000E+00
  0.000000000000E+00  0.000000000000E+00  0.000000000000E+00  0.000000000000E+00
  0.000000000000E+00  0.000000000000E+00  0.000000000000E+00  0.000000000000E+00
</data>
</radfunc>
</pseudocore-charge>
<semilocal-potentials set="scalar_relativistic">
<slps n="3" l="s" rc="1.45885293061" eref="-1.73059062160">
<radfunc>
<data npts="256">
  8.636481036617E+00  8.631643419482E+00  8.617190976816E+00  8.593108708977E+00
  8.559686983352E+00  8.515848377322E+00  8.460152734644E+00  8.396617507105E+00
  8.325484509299E+00  8.242937903580E+00  8.150413363502E+00  8.050464669393E+00
  7.930523145431E+00  7.806241413658E+00  7.660910723100E+00  7.517134203611E+00
  7.353238373842E+00  7.199505218447E+00  7.028535549810E+00  6.838692070582E+00
  6.628255012049E+00  6.443878683750E+00  6.244241641411E+00  6.028395459720E+00
  5.795391847944E+00  5.544295462900E+00  5.274198950162E+00  5.058636924322E+00
  4.831560439647E+00  4.592654454465E+00  4.341635050860E+00  4.078255264677E+00
  3.802311200424E+00  3.513648367004E+00  3.212168155466E+00  2.897834365070E+00
  2.570679669850E+00  2.230811904919E+00  1.997260388108E+00  1.758217998546E+00
  1.513779708762E+00  1.264058891060E+00  1.009187853975E+00  7.493183021105E-01
  4.846217118764E-01  2.152896164063E-01 -5.846620632708E-02 -3.364136471551E-01
 -6.183002849540E-01 -9.038535140205E-01 -1.192780780686E+00 -1.484769928759E+00
 -1.779489651724E+00 -2.076590047995E+00 -2.375703273743E+00 -2.676444286201E+00
 -2.978411668670E+00 -3.281188526906E+00 -3.584343445245E+00 -3.887431489490E+00
 -4.189995242785E+00 -4.491565859831E+00 -4.791664124507E+00 -5.089801495886E+00
 -5.385481127949E+00 -5.678198849006E+00 -5.967444087772E+00 -6.110603436414E+00
 -6.252700735017E+00 -6.393670733835E+00 -6.533447931039E+00 -6.671966592807E+00
 -6.809160772078E+00 -6.944964325940E+00 -7.079310931710E+00 -7.212134101728E+00
 -7.343367196965E+00 -7.472943439493E+00 -7.600795924014E+00 -7.726857628596E+00
 -7.851061424813E+00 -7.973340087650E+00 -8.093626305448E+00 -8.211852690400E+00
 -8.327951790072E+00 -8.441856100657E+00 -8.553498082731E+00 -8.662810180401E+00
 -8.769724845020E+00 -8.874174564670E+00 -8.976091900925E+00 -9.075409534489E+00
 -9.172060321574E+00 -9.265977362962E+00 -9.357094087778E+00 -9.445344354146E+00
 -9.530662568653E+00 -9.612983826532E+00 -9.692244073932E+00 -9.768380293245E+00
 -9.841330711586E+00 -9.911035031531E+00 -9.977434682069E+00 -1.004047308618E+01
 -1.010009594002E+01 -1.015625149699E+01 -1.020889084844E+01 -1.025796819158E+01
 -1.030344107411E+01 -1.034527060487E+01 -1.038342162026E+01 -1.041786279755E+01
 -1.044856670823E+01 -1.047550980792E+01 -1.049867236311E+01 -1.051803831891E+01
 -1.053359511699E+01 -1.054533347614E+01 -1.055324715161E+01 -1.055733269128E+01
 -1.055758920742E+01 -1.055401818217E+01 -1.054662332250E+01 -1.053541047727E+01
 -1.052038762472E+01 -1.050156493404E+01 -1.047895490018E+01 -1.045257254669E+01
 -1.042243568770E+01 -1.038856523739E+01 -1.035098555326E+01 -1.030972479841E+01
 -1.026481530815E+01 -1.021629394655E+01 -1.016420244030E+01 -1.010858767968E+01
 -1.004950197893E+01 -9.987003292751E+00 -9.921155389086E+00 -9.852027983536E+00
 -9.779696844865E+00 -9.704243885672E+00 -9.625757255945E+00 -9.544331460108E+00
 -9.460067519887E+00 -9.373073205734E+00 -9.283463358558E+00 -9.191360321224E+00
 -9.096894495760E+00 -9.000205037724E+00 -8.901440693819E+00 -8.800760782991E+00
 -8.698336314869E+00 -8.594351232725E+00 -8.489003761184E+00 -8.382507831578E+00
 -8.275094550220E+00 -8.167013666736E+00 -8.058534991051E+00 -7.949949698629E+00
 -7.841571454251E+00 -7.733737275290E+00 -7.626808046781E+00 -7.521168593367E+00
 -7.417227205094E+00 -7.315414507393E+00 -7.216181567732E+00 -7.119997135024E+00
 -7.027343912807E+00 -6.938713218288E+00 -6.854605046399E+00 -6.773451512993E+00
 -6.693182592106E+00 -6.613854335249E+00 -6.535447553392E+00 -6.457957354590E+00
 -6.381374413931E+00 -6.305690959076E+00 -6.230899379303E+00 -6.156992102818E+00
 -6.083961368199E+00 -6.011799039067E+00 -5.940496474968E+00 -5.870044466064E+00
 -5.800433236217E+00 -5.731652511162E+00 -5.663691641607E+00 -5.596539764887E+00
 -5.530185984476E+00 -5.464619544957E+00 -5.399829981305E+00 -5.335807225672E+00