<?xml version="1.0" encoding="UTF-8" ?>
<psml version="1.1" energy_unit="hartree" length_unit="bohr"
 uuid="086cfe90-be63-11e7-723b-c5c2bbef7224"
 xmlns="http://esl.cecam.org/PSML/ns/1.1">
<provenance creator="ONCVPSP-3.3.0+psml-3.3.0-73 (scalar-relativistic)"
 date="2017-10-31">
<annotation action="semilocal-pseudopotential-generation"
 action-cont="projectors-generation" />
<input-file name="oncvpsp-input">
<![CDATA[# atsym z nc nv iexc psfile
Cr 24 3 4 4 upf
# n l f
1 0 2.0
2 0 2.0
2 1 6.0
3 0 2.0
3 1 6.0
3 2 5.0
4 0 1.0
# lmax
2
# l rc ep ncon nbas qcut
0 1.1 0.0 4 8 10.8
1 1.1 0.0 4 7 11.0
2 1.4 0.0 4 8 11.0
# lloc lpopt rc5 dvloc0
4 5 1.1 0.0
# l nproj debl
0 2 1.0
1 2 1.0
2 2 1.0
# icmod fcfact
3 4.5 1.6
# epsh1 epsh2 depsh
-18.0 12.0 0.02
# rlmax drl
6.0 0.01
 0
]]>
</input-file>
</provenance>
<pseudo-atom-spec atomic-label="Cr" atomic-number="24" z-pseudo="14"
 flavor="Hamann&apos;s oncvpsp" relativity="scalar" spin-dft="no"
 core-corrections="yes">
<annotation pseudo-energy="-86.5562175553" />
<exchange-correlation>
<annotation oncvpsp-xc-code="4" oncvpsp-xc-type="GGA -- Perdew-Burke-Ernzerhof" />
<libxc-info number-of-functionals="2">
<functional name="Perdew, Burke &amp; Ernzerhof (GGA)" type="exchange" id="101" />
<functional name="Perdew, Burke &amp; Ernzerhof (GGA)" type="correlation"
 id="130" />
</libxc-info>
</exchange-correlation>
<valence-configuration total-valence-charge="14">
<shell n="3" l="s" occupation="2" />
<shell n="3" l="p" occupation="6" />
<shell n="3" l="d" occupation="5" />
<shell n="4" l="s" occupation="1" />
</valence-configuration>
</pseudo-atom-spec>
<grid npts="457">
<annotation type="sampled from oncvpsp log grid"
 recipe="r(i:1..N) = r1*exp(a*(i-1)) + r=0; resampled"
 recipe-cont="r1: scale; a: step" scale="0.208333333333E-04"
 step="0.119285708653E-01" delta="0.500000000000E-02" rmax="44.0721796572" />
<grid-data>
  0.000000000000E+00  5.032624347497E-03  1.005227218795E-02  1.508001122169E-02
  2.031956831929E-02  2.548849629768E-02  3.084838375803E-02  3.602293359331E-02
  4.107378401246E-02  4.627749473396E-02  5.152220634232E-02  5.668113689579E-02
  6.235663237039E-02  6.778697285802E-02  7.281641866882E-02  7.821902357048E-02
  8.402247405418E-02  8.918627550078E-02  9.466743067541E-02  1.004854433080E-01
  1.066610157766E-01  1.118736391042E-01  1.173410081958E-01  1.230755727145E-01
  1.290903907501E-01  1.353991585533E-01  1.420162417235E-01  1.471904228460E-01
  1.525531186762E-01  1.581111975076E-01  1.638717778713E-01  1.698422376531E-01
  1.760302235427E-01  1.824436608270E-01  1.890907635409E-01  1.959800449871E-01
  2.031203286396E-01  2.105207594445E-01  2.156035726605E-01  2.208091053189E-01
  2.261403203577E-01  2.316002522524E-01  2.371920087428E-01  2.429187726019E-01
  2.487838034476E-01  2.547904395980E-01  2.609420999717E-01  2.672422860334E-01
  2.736945837874E-01  2.803026658183E-01  2.870702933818E-01  2.940013185453E-01
  3.010996863802E-01  3.083694372082E-01  3.158147089001E-01  3.234397392318E-01
  3.312488682958E-01  3.392465409720E-01  3.474373094572E-01  3.558258358567E-01
  3.644168948376E-01  3.732153763466E-01  3.822262883931E-01  3.914547599001E-01
  4.009060436231E-01  4.105855191403E-01  4.204986959145E-01  4.255446802654E-01
  4.306512164286E-01  4.358190310258E-01  4.410488593981E-01  4.463414457109E-01
  4.516975430594E-01  4.571179135761E-01  4.626033285390E-01  4.681545684815E-01
  4.737724233033E-01  4.794576923829E-01  4.852111846915E-01  4.910337189078E-01
  4.969261235347E-01  5.028892370171E-01  5.089239078613E-01  5.150309947556E-01
  5.212113666927E-01  5.274659030930E-01  5.337954939301E-01  5.402010398573E-01
  5.466834523356E-01  5.532436537636E-01  5.598825776088E-01  5.666011685401E-01
  5.734003825626E-01  5.802811871533E-01  5.872445613992E-01  5.942914961360E-01
  6.014229940896E-01  6.086400700187E-01  6.159437508589E-01  6.233350758692E-01
  6.308150967796E-01  6.383848779410E-01  6.460454964763E-01  6.537980424340E-01
  6.616436189432E-01  6.695833423705E-01  6.776183424790E-01  6.857497625887E-01
  6.939787597398E-01  7.023065048566E-01  7.107341829149E-01  7.192629931099E-01
  7.278941490272E-01  7.366288788155E-01  7.454684253613E-01  7.544140464657E-01
  7.634670150233E-01  7.726286192035E-01  7.819001626340E-01  7.912829645856E-01
  8.007783601606E-01  8.103877004825E-01  8.201123528883E-01  8.299537011230E-01
  8.399131455365E-01  8.499921032829E-01  8.601920085223E-01  8.705143126246E-01
  8.809604843761E-01  8.915320101886E-01  9.022303943108E-01  9.130571590426E-01
  9.240138449511E-01  9.351020110905E-01  9.463232352236E-01  9.576791140463E-01
  9.691712634148E-01  9.808013185758E-01  9.925709343987E-01  1.004481785611E+00
  1.016535567039E+00  1.028733993843E+00  1.041078801769E+00  1.053571747391E+00
  1.066214608359E+00  1.079009183660E+00  1.091957293864E+00  1.105060781390E+00
  1.118321510767E+00  1.131741368896E+00  1.145322265323E+00  1.159066132506E+00
  1.172974926096E+00  1.187050625210E+00  1.201295232712E+00  1.215710775505E+00
  1.230299304811E+00  1.245062896469E+00  1.260003651226E+00  1.275123695041E+00
  1.290425179381E+00  1.305910281534E+00  1.321581204912E+00  1.337440179371E+00
  1.353489461524E+00  1.369731335062E+00  1.386168111083E+00  1.402802128416E+00
  1.419635753957E+00  1.436671383004E+00  1.453911439600E+00  1.471358376875E+00
  1.489014677398E+00  1.506882853527E+00  1.524965447769E+00  1.543265033142E+00
  1.561784213540E+00  1.580525624102E+00  1.599491931592E+00  1.618685834771E+00
  1.638110064788E+00  1.657767385566E+00  1.677660594192E+00  1.697792521323E+00
  1.718166031578E+00  1.738784023957E+00  1.759649432245E+00  1.780765225432E+00
  1.802134408137E+00  1.823760021035E+00  1.845645141287E+00  1.867792882983E+00
  1.890206397578E+00  1.912888874349E+00  1.935843540841E+00  1.959073663332E+00
  1.982582547292E+00  2.006373537859E+00  2.030450020313E+00  2.054815420557E+00
  2.079473205604E+00  2.104426884071E+00  2.129680006680E+00  2.155236166760E+00
  2.181099000761E+00  2.207272188770E+00  2.233759455036E+00  2.260564568496E+00
  2.287691343318E+00  2.315143639438E+00  2.342925363111E+00  2.371040467468E+00
  2.399492953078E+00  2.428286868515E+00  2.457426310937E+00  2.486915426668E+00
  2.516758411788E+00  2.546959512730E+00  2.577523026883E+00  2.608453303205E+00
  2.639754742844E+00  2.671431799758E+00  2.703488981355E+00  2.735930849131E+00
  2.768762019321E+00  2.801987163552E+00  2.835611009515E+00  2.869638341629E+00
  2.904074001729E+00  2.938922889750E+00  2.974189964427E+00  3.009880244000E+00
  3.045998806928E+00  3.082550792611E+00  3.119541402122E+00  3.156975898948E+00
  3.194859609735E+00  3.233197925052E+00  3.271996300152E+00  3.311260255754E+00
  3.350995378823E+00  3.391207323369E+00  3.431901811250E+00  3.473084632985E+00
  3.514761648580E+00  3.556938788363E+00  3.599622053824E+00  3.642817518470E+00
  3.686531328691E+00  3.730769704636E+00  3.775538941091E+00  3.820845408384E+00
  3.866695553285E+00  3.913095899924E+00  3.960053050723E+00  4.007573687332E+00
  4.055664571580E+00  4.104332546439E+00  4.153584536996E+00  4.203427551440E+00
  4.253868682058E+00  4.304915106242E+00  4.356574087517E+00  4.408852976567E+00
  4.461759212286E+00  4.515300322834E+00  4.569483926708E+00  4.624317733828E+00
  4.679809546634E+00  4.735967261194E+00  4.792798868328E+00  4.850312454748E+00
  4.908516204205E+00  4.967418398655E+00  5.027027419439E+00  5.087351748472E+00
  5.148399969454E+00  5.210180769088E+00  5.272702938317E+00  5.335975373576E+00
  5.400007078059E+00  5.464807162996E+00  5.530384848952E+00  5.596749467139E+00
  5.663910460745E+00  5.731877386274E+00  5.800659914909E+00  5.870267833888E+00
  5.940711047895E+00  6.011999580470E+00  6.084143575435E+00  6.157153298341E+00
  6.231039137921E+00  6.305811607576E+00  6.381481346867E+00  6.458059123029E+00
  6.535555832505E+00  6.613982502495E+00  6.693350292525E+00  6.773670496036E+00
  6.854954541988E+00  6.937213996492E+00  7.020460564450E+00  7.104706091223E+00
  7.189962564318E+00  7.276242115090E+00  7.363557020471E+00  7.451919704716E+00
  7.541342741173E+00  7.631838854067E+00  7.723420920316E+00  7.816101971360E+00
  7.909895195016E+00  8.004813937356E+00  8.100871704605E+00  8.198082165060E+00
  8.296459151040E+00  8.396016660853E+00  8.496768860783E+00  8.598730087113E+00
  8.701914848158E+00  8.806337826336E+00  8.912013880252E+00  9.018958046815E+00
  9.127185543377E+00  9.236711769897E+00  9.347552311136E+00  9.459722938870E+00
  9.573239614136E+00  9.688118489506E+00  9.804375911380E+00  9.922028422316E+00
  1.004109276338E+01  1.016158587654E+01  1.028352490706E+01  1.040692720595E+01
  1.053181033242E+01  1.065819205641E+01  1.078609036109E+01  1.091552344542E+01
  1.104650972676E+01  1.117906784348E+01  1.131321665761E+01  1.144897525750E+01
  1.158636296059E+01  1.172539931611E+01  1.186610410791E+01  1.200849735720E+01
  1.215259932549E+01  1.229843051740E+01  1.244601168360E+01  1.259536382381E+01
  1.274650818969E+01  1.289946628797E+01  1.305425988342E+01  1.321091100203E+01
  1.336944193405E+01  1.352987523726E+01  1.369223374011E+01  1.385654054499E+01
  1.402281903153E+01  1.419109285991E+01  1.436138597422E+01  1.453372260591E+01
  1.470812727719E+01  1.488462480451E+01  1.506324030217E+01  1.524399918579E+01
  1.542692717602E+01  1.561205030213E+01  1.579939490576E+01  1.598898764463E+01
  1.618085549636E+01  1.637502576232E+01  1.657152607147E+01  1.677038438433E+01
  1.697162899694E+01  1.717528854490E+01  1.738139200744E+01  1.758996871153E+01
  1.780104833607E+01  1.801466091610E+01  1.823083684709E+01  1.844960688926E+01
  1.867100217193E+01  1.889505419799E+01  1.912179484837E+01  1.935125638655E+01
  1.958347146319E+01  1.981847312075E+01  2.005629479820E+01  2.029697033577E+01
  2.054053397980E+01  2.078702038756E+01  2.103646463221E+01  2.128890220780E+01
  2.154436903429E+01  2.180290146270E+01  2.206453628026E+01  2.232931071562E+01
  2.259726244421E+01  2.286842959354E+01  2.314285074866E+01  2.342056495764E+01
  2.370161173713E+01  2.398603107798E+01  2.427386345092E+01  2.456514981233E+01
  2.485993161007E+01  2.515825078940E+01  2.546014979887E+01  2.576567159645E+01
  2.607485965561E+01  2.638775797148E+01  2.670441106714E+01  2.702486399994E+01
  2.734916236794E+01  2.767735231636E+01  2.800948054415E+01  2.834559431068E+01
  2.868574144241E+01  2.902997033972E+01  2.937832998380E+01  2.973086994360E+01
  3.008764038293E+01  3.044869206752E+01  3.081407637233E+01  3.118384528880E+01
  3.155805143227E+01  3.193674804945E+01  3.231998902605E+01  3.270782889436E+01
  3.310032284109E+01  3.349752671518E+01  3.389949703577E+01  3.430629100020E+01
  3.471796649220E+01  3.513458209010E+01  3.555619707519E+01  3.598287144009E+01
  3.641466589737E+01  3.685164188814E+01  3.729386159079E+01  3.774138792988E+01
  3.819428458504E+01  3.865261600006E+01  3.911644739206E+01  3.958584476077E+01
  4.006087489790E+01  4.054160539667E+01  4.102810466143E+01  4.152044191737E+01
  4.201868722038E+01  4.252291146702E+01  4.303318640463E+01  4.354958464148E+01
  4.407217965718E+01
</grid-data>
</grid>
<valence-charge total-charge="14" is-unscreening-charge="yes"
 rescaled-to-z-pseudo="no">
<radfunc>
<data npts="457">
  6.698904096710E-01  6.735215313604E-01  6.843788687258E-01  7.025016209442E-01
  7.291139853589E-01  7.631049135012E-01  8.064818305738E-01  8.562287012256E-01
  9.122607050803E-01  9.777315540319E-01  1.051693041634E+00  1.132280008575E+00
  1.229943149369E+00  1.332252639971E+00  1.434769374866E+00  1.553235003047E+00
  1.690150003545E+00  1.820414366242E+00  1.967406874702E+00  2.133288152983E+00
  2.320495811897E+00  2.487451900194E+00  2.671372546005E+00  2.873975002953E+00
  3.097142124932E+00  3.342934573464E+00  3.613602478149E+00  3.834394024415E+00
  4.071662146942E+00  4.326584469510E+00  4.600406608083E+00  4.894441787781E+00
  5.210069173942E+00  5.548730574578E+00  5.911925108204E+00  6.301201360456E+00
  6.718146475663E+00  7.164371546900E+00  7.478920089659E+00  7.807675767524E+00
  8.151106237768E+00  8.509667166066E+00  8.883797139670E+00  9.273911870742E+00
  9.680397629483E+00  1.010360384718E+01  1.054383483111E+01  1.100134053696E+01
  1.147630635027E+01  1.196884183695E+01  1.247896843438E+01  1.300660606999E+01
  1.355155871336E+01  1.411349889190E+01  1.469195122957E+01  1.528627510263E+01
  1.589564654803E+01  1.651903960698E+01  1.715520734099E+01  1.780266281819E+01
  1.845966043499E+01  1.912417801085E+01  1.979390017125E+01  2.046620361405E+01
  2.113814493505E+01  2.180645176721E+01  2.246751805985E+01  2.279411782903E+01
  2.311740438629E+01  2.343683423913E+01  2.375184421372E+01  2.406185204433E+01
  2.436625709311E+01  2.466444120743E+01  2.495576972140E+01  2.523959260795E+01
  2.551524578728E+01  2.578205259671E+01  2.603932542660E+01  2.628636752555E+01
  2.652247497774E+01  2.674693885354E+01  2.695904753384E+01  2.715808920656E+01
  2.734335453285E+01  2.751413947842E+01  2.766974830388E+01  2.780949670608E+01
  2.793271510026E+01  2.803875203112E+01  2.812697769821E+01  2.819678757948E+01
  2.824760613393E+01  2.827889056260E+01  2.829013460442E+01  2.828087234172E+01
  2.825068198756E+01  2.819918962559E+01  2.812607287080E+01  2.803106441840E+01
  2.791395544609E+01  2.777459883440E+01  2.761291216863E+01  2.742888048558E+01
  2.722255872826E+01  2.699407387207E+01  2.674362668698E+01  2.647149310133E+01
  2.617802513495E+01  2.586365137176E+01  2.552887694468E+01  2.517428300947E+01
  2.480052568793E+01  2.440833446554E+01  2.399851003343E+01  2.357192157032E+01
  2.312950346543E+01  2.267225148992E+01  2.220121843037E+01  2.171750920478E+01
  2.122227548767E+01  2.071670987784E+01  2.020203964846E+01  1.967952012570E+01
  1.915042774751E+01  1.861605286001E+01  1.807769231363E+01  1.753664192508E+01
  1.699418887532E+01  1.645160411565E+01  1.591013485632E+01  1.537099721263E+01
  1.483536908349E+01  1.430438333598E+01  1.377912136768E+01  1.326060711500E+01
  1.274980157182E+01  1.224759787763E+01  1.175481702840E+01  1.127220425687E+01
  1.080042612132E+01  1.034006833433E+01  9.891634354231E+00  9.455544753778E+00
  9.032137371204E+00  8.621668240429E+00  8.224313288117E+00  7.840170776959E+00
  7.469265873706E+00  7.111561788206E+00  6.766974792191E+00  6.435380333444E+00
  6.116614671573E+00  5.810480013666E+00  5.516748415034E+00  5.235165843584E+00
  4.965456169807E+00  4.707325067485E+00  4.460463795707E+00  4.224552829902E+00
  3.999265311020E+00  3.784270280574E+00  3.579235668857E+00  3.383831003421E+00
  3.197729805330E+00  3.020611641807E+00  2.852163806072E+00  2.692082598501E+00
  2.540073692209E+00  2.395847476779E+00  2.259114488046E+00  2.129586008334E+00
  2.006975036530E+00  1.890997179097E+00  1.781371463361E+00  1.677821074791E+00
  1.580074020264E+00  1.487863719568E+00  1.400929527663E+00  1.319017190396E+00
  1.241879236537E+00  1.169275309157E+00  1.100972439468E+00  1.036745266335E+00
  9.763762047273E-01  9.196555663998E-01  8.663816361298E-01  8.163607067940E-01
  7.694070765621E-01  7.253430114279E-01  6.839986762316E-01  6.452120372523E-01
  6.088287393543E-01  5.747019605684E-01  5.426922468739E-01  5.126673298268E-01
  4.845019295466E-01  4.580775454422E-01  4.332822369145E-01  4.100103961299E-01
  3.881625148158E-01  3.676449468770E-01  3.483696684905E-01  3.302540371843E-01
  3.132205512674E-01  2.971966108307E-01  2.821142814087E-01  2.679100612537E-01
  2.545246530530E-01  2.419027407992E-01  2.299927724138E-01  2.187467486197E-01
  2.081200184671E-01  1.980710818290E-01  1.885613991073E-01  1.795552083211E-01
  1.710193496884E-01  1.629230977590E-01  1.552380011077E-01  1.479377295603E-01
  1.409979288827E-01  1.343960828385E-01  1.281113824895E-01  1.221246025907E-01
  1.164179849128E-01  1.109751283048E-01  1.057808852968E-01  1.008212650287E-01
  9.608334228169E-02  9.155517237958E-02  8.722571172132E-02  8.308474370257E-02
  7.912280977984E-02  7.533114543098E-02  7.170162076600E-02  6.822668554411E-02
  6.489931835646E-02  6.171297973841E-02  5.866156898090E-02  5.573938441677E-02
  5.294108696527E-02  5.026166672610E-02  4.769641242225E-02  4.524088350031E-02
  4.289088470569E-02  4.064244295950E-02  3.849178637327E-02  3.643532524694E-02
  3.446963490458E-02  3.259144023135E-02  3.079760178376E-02  2.908510335343E-02
  2.745104087234E-02  2.589261255494E-02  2.440711017901E-02  2.299191141347E-02
  2.164447310703E-02  2.036232545658E-02  1.914306697878E-02  1.798436021256E-02
  1.688392808398E-02  1.583955086803E-02  1.484906368599E-02  1.391035447719E-02
  1.302136239148E-02  1.218007654727E-02  1.138453510439E-02  1.063282460377E-02
  9.923079528702E-03  9.253482045268E-03  8.622261882668E-03  8.027696317262E-03
  7.468110227317E-03  6.941876188724E-03  6.447414585210E-03  5.983193709844E-03
  5.547729837832E-03  5.139587253727E-03  4.757378219226E-03  4.399762870531E-03
  4.065449037026E-03  3.753191975445E-03  3.461794016058E-03  3.190104119427E-03
  2.937017344156E-03  2.701474227639E-03  2.482460083216E-03  2.279004218280E-03
  2.090179078842E-03  1.915099326782E-03  1.752920856569E-03  1.602839758594E-03
  1.464091236469E-03  1.335948485715E-03  1.217721541154E-03  1.108756100176E-03
  1.008432328726E-03  9.161636565134E-04  8.313955674925E-04  7.536043911902E-04
  6.822960999205E-04  6.170051163984E-04  5.572931357071E-04  5.027479650344E-04
  4.529823840678E-04  4.076330284428E-04  3.663592981750E-04  3.288422925903E-04
  2.947837728917E-04  2.639051531806E-04  2.359465204746E-04  2.106656840372E-04
  1.878372541568E-04  1.672517503726E-04  1.487147390432E-04  1.320460000843E-04
  1.170787226579E-04  1.036587295701E-04  9.164373012331E-05  8.090260117018E-05
  7.131469611684E-05  6.276918162839E-05  5.516440179091E-05  4.840726948072E-05
  4.241268468235E-05  3.710297947990E-05  3.240738942267E-05  2.826155093501E-05
  2.460702440283E-05  2.139084252697E-05  1.856508348676E-05  1.608646840801E-05
  1.391598257906E-05  1.201851980838E-05  1.036254926805E-05  8.919804121679E-06
  7.664991192533E-06  6.575520889959E-06  5.631256579580E-06  4.814282555890E-06
  4.108689755159E-06  3.500378332134E-06  2.976876215718E-06  2.527172756773E-06
  2.141566584901E-06  1.811526800328E-06  1.529566641375E-06  1.289128786979E-06
  1.084481476749E-06  9.106246576879E-07  7.632053962648E-07  6.384418266131E-07
  5.330549395595E-07  4.442075526053E-07  3.694498369153E-07  3.066708181735E-07
  2.540552954887E-07  2.100455168667E-07  1.733086293743E-07  1.427025652476E-07
  7.227380943386E-08  5.887113187372E-08  4.784527082667E-08  3.879543165333E-08
  3.138461671559E-08  2.533012861394E-08  2.039537818979E-08  1.638284152670E-08
  1.312801043125E-08  1.049420983105E-08  8.368169511083E-09  6.656250371821E-09
  5.281236992940E-09  4.179618786702E-09  3.299291492997E-09  2.597619271429E-09
  2.039805254212E-09  1.597525205646E-09  1.247784957157E-09  9.719676166205E-10
  7.550412500317E-10  5.849018621697E-10  4.518301173772E-10  3.480433948314E-10
  2.673275139930E-10  2.047348408559E-10  1.563375360381E-10  1.190264699032E-10
  9.034784253451E-11  6.837083889849E-11  5.158075017639E-11  3.879292627052E-11
  2.908371439637E-11  2.173520439085E-11  1.619116047992E-11  1.202198719792E-11
  8.896967434087E-12  6.562334949418E-12  4.824012342566E-12  3.534067134422E-12
  2.580120940026E-12  1.877096065085E-12  1.360805809580E-12  9.829939556446E-13
  7.075093098446E-13  5.073660845153E-13  3.624931239203E-13  2.580168331570E-13
  1.829560827942E-13  1.292339391921E-13  9.093212720851E-14  6.373075024733E-14
  4.448885643567E-14  3.093166866601E-14  2.141827341667E-14  1.476975922176E-14
  1.014258847176E-14  6.935678354474E-15  4.722499111446E-15  3.201661444532E-15
  2.161110703221E-15  1.452291980193E-15  9.715902122895E-16  6.470550903313E-16
  4.289480543136E-16  2.830411345019E-16  1.858881136793E-16  1.215028310849E-16
  7.903675270106E-17  5.116283351133E-17  3.295622609181E-17  2.112282649438E-17
  1.347013940489E-17  8.546167424970E-18  5.394156101922E-18  3.386893329630E-18
  2.115329932205E-18  1.314091671004E-18  8.119255228800E-19  4.989090731234E-19
  3.048685609830E-19  1.852511520596E-19  1.119275221502E-19  6.723739196238E-20
  4.015621496493E-20  2.384142446960E-20  1.407078585422E-20  8.254296338182E-21
  4.812666228285E-21  2.788710553619E-21  1.605834339671E-21  9.188501922437E-22
  5.223990810450E-22  0.000000000000E+00  0.000000000000E+00  0.000000000000E+00
  0.000000000000E+00
</data>
</radfunc>
</valence-charge>
<pseudocore-charge matching-radius="0.468154568481"
 number-of-continuous-derivatives="4">
<annotation model-charge-form="Teter function with specified parameters" />
<radfunc>
<data npts="290">
  1.211374522266E+02  1.211201765706E+02  1.210685414258E+02  1.209824216107E+02
  1.208561126981E+02  1.206950480734E+02  1.204899369615E+02  1.202552921463E+02
  1.199917461434E+02  1.196847933791E+02  1.193393000347E+02  1.189643673292E+02
  1.185120665882E+02  1.180406511647E+02  1.175707046771E+02  1.170306129713E+02
  1.164102909136E+02  1.158238811749E+02  1.151664918375E+02  1.144300021094E+02
  1.136054883181E+02  1.128759632145E+02  1.120784573532E+02  1.112071910908E+02
  1.102560097469E+02  1.092183849341E+02  1.080874229526E+02  1.071736049382E+02
  1.062000429111E+02  1.051634697464E+02  1.040605382156E+02  1.028878361626E+02
  1.016419052038E+02  1.003192634041E+02  9.891643240469E+01  9.742996949977E+01
  9.585650517090E+01  9.419278659060E+01  9.303196705900E+01  9.182879653708E+01
  9.058246556141E+01  8.929222593651E+01  8.795740036913E+01  8.657739279300E+01
  8.515169938775E+01  8.367992028768E+01  8.216177196650E+01  8.059710027369E+01
  7.898589408474E+01  7.732829951351E+01  7.562463461809E+01  7.387540451277E+01
  7.208131677808E+01  7.024329703768E+01  6.836250454571E+01  6.644034760063E+01
  6.447849857264E+01  6.247890830031E+01  6.044381957994E+01  5.837577943778E+01
  5.627764984161E+01  5.415261647532E+01  5.200419516868E+01  4.983623554558E+01
  4.765292142979E+01  4.545876752820E+01  4.325861190057E+01  4.215788084314E+01
  4.105760372368E+01  3.995846994414E+01  3.886118586803E+01  3.776647396059E+01
  3.667507183118E+01  3.558773117529E+01  3.450521661383E+01  3.342830442780E+01
  3.235778118686E+01  3.129444227061E+01  3.023909028228E+01  2.919253335472E+01
  2.815558334949E+01  2.712905395041E+01  2.611375865377E+01  2.511050865804E+01
  2.412011065697E+01  2.314336454081E+01  2.218106101121E+01  2.123397911658E+01
  2.030288371552E+01  1.938852287725E+01  1.849162522880E+01  1.761289726004E+01
  1.675302059878E+01  1.591264926914E+01  1.509240694771E+01  1.429288423305E+01
  1.351463594509E+01  1.275817847218E+01  1.202398718430E+01  1.131249393193E+01
  1.062408465077E+01  9.959097093297E+00  9.317818708265E+00  8.700484690095E+00
  8.107276219761E+00  7.538318919014E+00  6.993681539342E+00  6.473374906571E+00
  5.977351141169E+00  5.505503173233E+00  5.057664569723E+00  4.633609689827E+00
  4.233054182267E+00  3.855655836062E+00  3.501015793544E+00  3.168680131466E+00
  2.858141812720E+00  2.568843007636E+00  2.300177779931E+00  2.051495128370E+00
  1.822102370863E+00  1.611268853355E+00  1.418229961335E+00  1.242191407276E+00
  1.082333762802E+00  9.378172000558E-01  8.077864025104E-01  6.913756016626E-01
  5.877136924972E-01  4.959293776279E-01  4.151562875621E-01  3.445380227525E-01
  2.832330620639E-01  2.304194820692E-01  1.852994322822E-01  1.471033130680E-01
  1.150936056140E-01  8.856830698677E-02  6.686392797175E-02  4.935801703959E-02
  3.547118038212E-02  2.466857540977E-02  1.646086330793E-02  1.040461506830E-02
  6.102174680210E-03  3.200992693860E-03  1.392452939092E-03  4.102245662830E-04
  2.818052339704E-05  5.793184245909E-05  3.460344269844E-04  7.709311665752E-04
  1.239696931961E-03  1.684657127786E-03  2.059951844253E-03  2.338117142685E-03
  2.506752580644E-03  2.565339738896E-03  2.522270333148E-03  2.392134626792E-03
  2.193311526755E-03  1.945891230167E-03  1.669949942913E-03  1.384184410412E-03
  1.104902220446E-03  8.453525108266E-04  6.153712934355E-04  4.213065200571E-04
  2.661806485454E-04  1.500431361540E-04  7.046221805472E-05  2.310464483765E-05
  2.353756257095E-06  1.920237418757E-06  1.540589082928E-05  3.678839951730E-05
  6.080388900840E-05  8.321357995655E-05  1.009503752523E-04  1.121502547419E-04
  1.160812993520E-04  1.129895495876E-04  1.038853468910E-04  9.029607809729E-05
  7.401127514777E-05  5.684392022556E-05  4.042784615718E-05  2.606572936663E-05
  1.463589066662E-05  6.559560924785E-06  1.824062351108E-06  5.208536294612E-08
  6.033864955391E-07  2.693122438536E-06  5.510807498141E-06  8.325468599606E-06
  1.056570412131E-05  1.186758876678E-05  1.208814291412E-05  1.128678379528E-05
  9.681202674210E-06  7.586972070490E-06  5.351551691965E-06  3.293115431849E-06
  1.652879234114E-06  5.667006564702E-07  5.814257691112E-08  0.000000000000E+00
  0.000000000000E+00  0.000000000000E+00  0.000000000000E+00  0.000000000000E+00
  0.000000000000E+00  0.000000000000E+00  0.000000000000E+00  0.000000000000E+00
  0.000000000000E+00  0.000000000000E+00  0.000000000000E+00  0.000000000000E+00
  0.000000000000E+00  0.000000000000E+00  0.000000000000E+00  0.000000000000E+00
  0.000000000000E+00  0.000000000000E+00  0.000000000000E+00  0.000000000000E+00
  0.000000000000E+00  0.000000000000E+00  0.000000000000E+00  0.000000000000E+00
  0.000000000000E+00  0.000000000000E+00  0.000000000000E+00  0.000000000000E+00
  0.000000000000E+00  0.000000000000E+00  0.000000000000E+00  0.000000000000E+00
  0.000000000000E+00  0.000000000000E+00  0.000000000000E+00  0.000000000000E+00
  0.000000000000E+00  0.000000000000E+00  0.000000000000E+00  0.000000000000E+00
  0.000000000000E+00  0.000000000000E+00  0.000000000000E+00  0.000000000000E+00
  0.000000000000E+00  0.000000000000E+00  0.000000000000E+00  0.000000000000E+00
  0.000000000000E+00  0.000000000000E+00  0.000000000000E+00  0.000000000000E+00
  0.000000000000E+00  0.000000000000E+00  0.000000000000E+00  0.000000000000E+00
  0.000000000000E+00  0.000000000000E+00  0.000000000000E+00  0.000000000000E+00
  0.000000000000E+00  0.000000000000E+00  0.000000000000E+00  0.000000000000E+00
  0.000000000000E+00  0.000000000000E+00  0.000000000000E+00  0.000000000000E+00
  0.000000000000E+00  0.000000000000E+00  0.000000000000E+00  0.000000000000E+00
  0.000000000000E+00  0.000000000000E+00  0.000000000000E+00  0.000000000000E+00
  0.000000000000E+00  0.000000000000E+00  0.000000000000E+00  0.000000000000E+00
  0.000000000000E+00  0.000000000000E+00
</data>
</radfunc>
</pseudocore-charge>
<semilocal-potentials set="scalar_relativistic">
<slps n="3" l="s" rc="1.10506078139" eref="-2.71913861574">
<radfunc>
<data npts="290">
  3.069534029565E+01  3.066643195362E+01  3.058092624008E+01  3.043886758678E+01
  3.023153388091E+01  2.996885674814E+01  2.963707444303E+01  2.926121525992E+01
  2.884369017326E+01  2.836346182259E+01  2.783058772726E+01  2.726127355611E+01
  2.658659061395E+01  2.589710431302E+01  2.522329033923E+01  2.446506960056E+01
  2.361484382485E+01  2.283066712414E+01  2.197334901381E+01  2.103915788782E+01
  2.002486384874E+01  1.915400850256E+01  1.822930963121E+01  1.725025496891E+01
  1.621680616782E+01  1.512945849294E+01  1.398929595692E+01  1.310052435969E+01
  1.218397219521E+01  1.124083361429E+01  1.027252721939E+01  9.280697285389E+00
  8.267211934949E+00  7.234158109337E+00  6.183833257779E+00  5.118733760880E+00
  4.041540203287E+00  2.955099713330E+00  2.227141735921E+00  1.497320336635E+00
  7.665753175271E-01  3.586452548567E-02 -6.938395103187E-01 -1.421552988764E+00
 -2.146284258097E+00 -2.867037211315E+00 -3.582814619181E+00 -4.292621365755E+00
 -4.995467553201E+00 -5.690371445287E+00 -6.376362222196E+00 -7.052482523089E+00
 -7.717790757168E+00 -8.371363168708E+00 -9.012295646640E+00 -9.639705274550E+00
 -1.025273162248E+01 -1.085053778743E+01 -1.143231119487E+01 -1.199726417912E+01
 -1.254463436510E+01 -1.307368487924E+01 -1.358370442102E+01 -1.407400723064E+01
 -1.454393299165E+01 -1.499284670916E+01 -1.542013860651E+01 -1.562549270087E+01
 -1.582522408386E+01 -1.601926362473E+01 -1.620754378205E+01 -1.638999861441E+01
 -1.656656379442E+01 -1.673717662625E+01 -1.690177606696E+01 -1.706030275192E+01
 -1.721269902454E+01 -1.735890897052E+01 -1.749887845676E+01 -1.763255517519E+01
 -1.775988869158E+01 -1.788083049939E+01 -1.799533407881E+01 -1.810335496101E+01
 -1.820485079745E+01 -1.829978143441E+01 -1.838810899249E+01 -1.846979795103E+01
 -1.854481523721E+01 -1.861313031981E+01 -1.867471530716E+01 -1.872954504926E+01
 -1.877759724370E+01 -1.881885254515E+01 -1.885329467827E+01 -1.888091055371E+01
 -1.890169038723E+01 -1.891562782178E+01 -1.892272005271E+01 -1.892296795621E+01
 -1.891637622159E+01 -1.890295348786E+01 -1.888271248568E+01 -1.885567018577E+01
 -1.882184795555E+01 -1.878127172597E+01 -1.873397217091E+01 -1.867998490238E+01
 -1.861935068483E+01 -1.855211567291E+01 -1.847833167729E+01 -1.839805646401E+01
 -1.831135409345E+01 -1.821829530551E+01 -1.811895795829E+01 -1.801342752828E+01
 -1.790179768011E+01 -1.778417091476E+01 -1.766065930493E+01 -1.753138532647E+01
 -1.739648279438E+01 -1.725609791129E+01 -1.711039043531E+01 -1.695953497267E+01
 -1.680372239834E+01 -1.664316140522E+01 -1.647808017893E+01 -1.630872819075E+01
 -1.613537809618E+01 -1.595832771975E+01 -1.577790209986E+01 -1.559445555819E+01
 -1.540837374896E+01 -1.522007563204E+01 -1.503001530230E+01 -1.483868359483E+01
 -1.464660937242E+01 -1.445436038826E+01 -1.426254360392E+01 -1.407180483029E+01
 -1.388282754892E+01 -1.369633076285E+01 -1.351306572132E+01 -1.333381136229E+01
 -1.315936832042E+01 -1.299055135847E+01 -1.282817953579E+01 -1.267307099877E+01
 -1.252290756397E+01 -1.237430286097E+01 -1.222743731054E+01 -1.208228126323E+01
 -1.193882612568E+01 -1.179705426532E+01 -1.165694920671E+01 -1.151849410305E+01