<?xml version="1.0" encoding="UTF-8" ?>
<psml version="1.1" energy_unit="hartree" length_unit="bohr"
 uuid="dc09f040-be41-11e7-6c20-0877dceecaa6"
 xmlns="http://esl.cecam.org/PSML/ns/1.1">
<provenance creator="ONCVPSP-3.3.0+psml-3.3.0-73 (scalar-relativistic)"
 date="2017-10-31">
<annotation action="semilocal-pseudopotential-generation"
 action-cont="projectors-generation" />
<input-file name="oncvpsp-input">
<![CDATA[# atsym z nc nv iexc psfile
Cr 24 3 4 4 upf
# n l f
1 0 2.0
2 0 2.0
2 1 6.0
3 0 2.0
3 1 6.0
3 2 5.0
4 0 1.0
# lmax
2
# l rc ep ncon nbas qcut
0 1.3 0.0 4 8 8.9
1 1.3 0.0 4 7 10.0
2 1.7 0.0 4 8 10.0
# lloc lpopt rc5 dvloc0
4 5 1.3 0.0
# l nproj debl
0 2 1.0
1 2 1.0
2 2 1.0
# icmod fcfact
3 5 1.32
# epsh1 epsh2 depsh
-18.0 12.0 0.02
# rlmax drl
6.0 0.01
 0
]]>
</input-file>
</provenance>
<pseudo-atom-spec atomic-label="Cr" atomic-number="24" z-pseudo="14"
 flavor="Hamann&apos;s oncvpsp" relativity="scalar" spin-dft="no"
 core-corrections="yes">
<annotation pseudo-energy="-86.0624511346" />
<exchange-correlation>
<annotation oncvpsp-xc-code="4" oncvpsp-xc-type="GGA -- Perdew-Burke-Ernzerhof" />
<libxc-info number-of-functionals="2">
<functional name="Perdew, Burke &amp; Ernzerhof (GGA)" type="exchange" id="101" />
<functional name="Perdew, Burke &amp; Ernzerhof (GGA)" type="correlation"
 id="130" />
</libxc-info>
</exchange-correlation>
<valence-configuration total-valence-charge="14">
<shell n="3" l="s" occupation="2" />
<shell n="3" l="p" occupation="6" />
<shell n="3" l="d" occupation="5" />
<shell n="4" l="s" occupation="1" />
</valence-configuration>
</pseudo-atom-spec>
<grid npts="457">
<annotation type="sampled from oncvpsp log grid"
 recipe="r(i:1..N) = r1*exp(a*(i-1)) + r=0; resampled"
 recipe-cont="r1: scale; a: step" scale="0.208333333333E-04"
 step="0.119285708653E-01" delta="0.500000000000E-02" rmax="44.0721796572" />
<grid-data>
  0.000000000000E+00  5.032624347497E-03  1.005227218795E-02  1.508001122169E-02
  2.031956831929E-02  2.548849629768E-02  3.084838375803E-02  3.602293359331E-02
  4.107378401246E-02  4.627749473396E-02  5.152220634232E-02  5.668113689579E-02
  6.235663237039E-02  6.778697285802E-02  7.281641866882E-02  7.821902357048E-02
  8.402247405418E-02  8.918627550078E-02  9.466743067541E-02  1.004854433080E-01
  1.066610157766E-01  1.118736391042E-01  1.173410081958E-01  1.230755727145E-01
  1.290903907501E-01  1.353991585533E-01  1.420162417235E-01  1.471904228460E-01
  1.525531186762E-01  1.581111975076E-01  1.638717778713E-01  1.698422376531E-01
  1.760302235427E-01  1.824436608270E-01  1.890907635409E-01  1.959800449871E-01
  2.031203286396E-01  2.105207594445E-01  2.156035726605E-01  2.208091053189E-01
  2.261403203577E-01  2.316002522524E-01  2.371920087428E-01  2.429187726019E-01
  2.487838034476E-01  2.547904395980E-01  2.609420999717E-01  2.672422860334E-01
  2.736945837874E-01  2.803026658183E-01  2.870702933818E-01  2.940013185453E-01
  3.010996863802E-01  3.083694372082E-01  3.158147089001E-01  3.234397392318E-01
  3.312488682958E-01  3.392465409720E-01  3.474373094572E-01  3.558258358567E-01
  3.644168948376E-01  3.732153763466E-01  3.822262883931E-01  3.914547599001E-01
  4.009060436231E-01  4.105855191403E-01  4.204986959145E-01  4.255446802654E-01
  4.306512164286E-01  4.358190310258E-01  4.410488593981E-01  4.463414457109E-01
  4.516975430594E-01  4.571179135761E-01  4.626033285390E-01  4.681545684815E-01
  4.737724233033E-01  4.794576923829E-01  4.852111846915E-01  4.910337189078E-01
  4.969261235347E-01  5.028892370171E-01  5.089239078613E-01  5.150309947556E-01
  5.212113666927E-01  5.274659030930E-01  5.337954939301E-01  5.402010398573E-01
  5.466834523356E-01  5.532436537636E-01  5.598825776088E-01  5.666011685401E-01
  5.734003825626E-01  5.802811871533E-01  5.872445613992E-01  5.942914961360E-01
  6.014229940896E-01  6.086400700187E-01  6.159437508589E-01  6.233350758692E-01
  6.308150967796E-01  6.383848779410E-01  6.460454964763E-01  6.537980424340E-01
  6.616436189432E-01  6.695833423705E-01  6.776183424790E-01  6.857497625887E-01
  6.939787597398E-01  7.023065048566E-01  7.107341829149E-01  7.192629931099E-01
  7.278941490272E-01  7.366288788155E-01  7.454684253613E-01  7.544140464657E-01
  7.634670150233E-01  7.726286192035E-01  7.819001626340E-01  7.912829645856E-01
  8.007783601606E-01  8.103877004825E-01  8.201123528883E-01  8.299537011230E-01
  8.399131455365E-01  8.499921032829E-01  8.601920085223E-01  8.705143126246E-01
  8.809604843761E-01  8.915320101886E-01  9.022303943108E-01  9.130571590426E-01
  9.240138449511E-01  9.351020110905E-01  9.463232352236E-01  9.576791140463E-01
  9.691712634148E-01  9.808013185758E-01  9.925709343987E-01  1.004481785611E+00
  1.016535567039E+00  1.028733993843E+00  1.041078801769E+00  1.053571747391E+00
  1.066214608359E+00  1.079009183660E+00  1.091957293864E+00  1.105060781390E+00
  1.118321510767E+00  1.131741368896E+00  1.145322265323E+00  1.159066132506E+00
  1.172974926096E+00  1.187050625210E+00  1.201295232712E+00  1.215710775505E+00
  1.230299304811E+00  1.245062896469E+00  1.260003651226E+00  1.275123695041E+00
  1.290425179381E+00  1.305910281534E+00  1.321581204912E+00  1.337440179371E+00
  1.353489461524E+00  1.369731335062E+00  1.386168111083E+00  1.402802128416E+00
  1.419635753957E+00  1.436671383004E+00  1.453911439600E+00  1.471358376875E+00
  1.489014677398E+00  1.506882853527E+00  1.524965447769E+00  1.543265033142E+00
  1.561784213540E+00  1.580525624102E+00  1.599491931592E+00  1.618685834771E+00
  1.638110064788E+00  1.657767385566E+00  1.677660594192E+00  1.697792521323E+00
  1.718166031578E+00  1.738784023957E+00  1.759649432245E+00  1.780765225432E+00
  1.802134408137E+00  1.823760021035E+00  1.845645141287E+00  1.867792882983E+00
  1.890206397578E+00  1.912888874349E+00  1.935843540841E+00  1.959073663332E+00
  1.982582547292E+00  2.006373537859E+00  2.030450020313E+00  2.054815420557E+00
  2.079473205604E+00  2.104426884071E+00  2.129680006680E+00  2.155236166760E+00
  2.181099000761E+00  2.207272188770E+00  2.233759455036E+00  2.260564568496E+00
  2.287691343318E+00  2.315143639438E+00  2.342925363111E+00  2.371040467468E+00
  2.399492953078E+00  2.428286868515E+00  2.457426310937E+00  2.486915426668E+00
  2.516758411788E+00  2.546959512730E+00  2.577523026883E+00  2.608453303205E+00
  2.639754742844E+00  2.671431799758E+00  2.703488981355E+00  2.735930849131E+00
  2.768762019321E+00  2.801987163552E+00  2.835611009515E+00  2.869638341629E+00
  2.904074001729E+00  2.938922889750E+00  2.974189964427E+00  3.009880244000E+00
  3.045998806928E+00  3.082550792611E+00  3.119541402122E+00  3.156975898948E+00
  3.194859609735E+00  3.233197925052E+00  3.271996300152E+00  3.311260255754E+00
  3.350995378823E+00  3.391207323369E+00  3.431901811250E+00  3.473084632985E+00
  3.514761648580E+00  3.556938788363E+00  3.599622053824E+00  3.642817518470E+00
  3.686531328691E+00  3.730769704636E+00  3.775538941091E+00  3.820845408384E+00
  3.866695553285E+00  3.913095899924E+00  3.960053050723E+00  4.007573687332E+00
  4.055664571580E+00  4.104332546439E+00  4.153584536996E+00  4.203427551440E+00
  4.253868682058E+00  4.304915106242E+00  4.356574087517E+00  4.408852976567E+00
  4.461759212286E+00  4.515300322834E+00  4.569483926708E+00  4.624317733828E+00
  4.679809546634E+00  4.735967261194E+00  4.792798868328E+00  4.850312454748E+00
  4.908516204205E+00  4.967418398655E+00  5.027027419439E+00  5.087351748472E+00
  5.148399969454E+00  5.210180769088E+00  5.272702938317E+00  5.335975373576E+00
  5.400007078059E+00  5.464807162996E+00  5.530384848952E+00  5.596749467139E+00
  5.663910460745E+00  5.731877386274E+00  5.800659914909E+00  5.870267833888E+00
  5.940711047895E+00  6.011999580470E+00  6.084143575435E+00  6.157153298341E+00
  6.231039137921E+00  6.305811607576E+00  6.381481346867E+00  6.458059123029E+00
  6.535555832505E+00  6.613982502495E+00  6.693350292525E+00  6.773670496036E+00
  6.854954541988E+00  6.937213996492E+00  7.020460564450E+00  7.104706091223E+00
  7.189962564318E+00  7.276242115090E+00  7.363557020471E+00  7.451919704716E+00
  7.541342741173E+00  7.631838854067E+00  7.723420920316E+00  7.816101971360E+00
  7.909895195016E+00  8.004813937356E+00  8.100871704605E+00  8.198082165060E+00
  8.296459151040E+00  8.396016660853E+00  8.496768860783E+00  8.598730087113E+00
  8.701914848158E+00  8.806337826336E+00  8.912013880252E+00  9.018958046815E+00
  9.127185543377E+00  9.236711769897E+00  9.347552311136E+00  9.459722938870E+00
  9.573239614136E+00  9.688118489506E+00  9.804375911380E+00  9.922028422316E+00
  1.004109276338E+01  1.016158587654E+01  1.028352490706E+01  1.040692720595E+01
  1.053181033242E+01  1.065819205641E+01  1.078609036109E+01  1.091552344542E+01
  1.104650972676E+01  1.117906784348E+01  1.131321665761E+01  1.144897525750E+01
  1.158636296059E+01  1.172539931611E+01  1.186610410791E+01  1.200849735720E+01
  1.215259932549E+01  1.229843051740E+01  1.244601168360E+01  1.259536382381E+01
  1.274650818969E+01  1.289946628797E+01  1.305425988342E+01  1.321091100203E+01
  1.336944193405E+01  1.352987523726E+01  1.369223374011E+01  1.385654054499E+01
  1.402281903153E+01  1.419109285991E+01  1.436138597422E+01  1.453372260591E+01
  1.470812727719E+01  1.488462480451E+01  1.506324030217E+01  1.524399918579E+01
  1.542692717602E+01  1.561205030213E+01  1.579939490576E+01  1.598898764463E+01
  1.618085549636E+01  1.637502576232E+01  1.657152607147E+01  1.677038438433E+01
  1.697162899694E+01  1.717528854490E+01  1.738139200744E+01  1.758996871153E+01
  1.780104833607E+01  1.801466091610E+01  1.823083684709E+01  1.844960688926E+01
  1.867100217193E+01  1.889505419799E+01  1.912179484837E+01  1.935125638655E+01
  1.958347146319E+01  1.981847312075E+01  2.005629479820E+01  2.029697033577E+01
  2.054053397980E+01  2.078702038756E+01  2.103646463221E+01  2.128890220780E+01
  2.154436903429E+01  2.180290146270E+01  2.206453628026E+01  2.232931071562E+01
  2.259726244421E+01  2.286842959354E+01  2.314285074866E+01  2.342056495764E+01
  2.370161173713E+01  2.398603107798E+01  2.427386345092E+01  2.456514981233E+01
  2.485993161007E+01  2.515825078940E+01  2.546014979887E+01  2.576567159645E+01
  2.607485965561E+01  2.638775797148E+01  2.670441106714E+01  2.702486399994E+01
  2.734916236794E+01  2.767735231636E+01  2.800948054415E+01  2.834559431068E+01
  2.868574144241E+01  2.902997033972E+01  2.937832998380E+01  2.973086994360E+01
  3.008764038293E+01  3.044869206752E+01  3.081407637233E+01  3.118384528880E+01
  3.155805143227E+01  3.193674804945E+01  3.231998902605E+01  3.270782889436E+01
  3.310032284109E+01  3.349752671518E+01  3.389949703577E+01  3.430629100020E+01
  3.471796649220E+01  3.513458209010E+01  3.555619707519E+01  3.598287144009E+01
  3.641466589737E+01  3.685164188814E+01  3.729386159079E+01  3.774138792988E+01
  3.819428458504E+01  3.865261600006E+01  3.911644739206E+01  3.958584476077E+01
  4.006087489790E+01  4.054160539667E+01  4.102810466143E+01  4.152044191737E+01
  4.201868722038E+01  4.252291146702E+01  4.303318640463E+01  4.354958464148E+01
  4.407217965718E+01
</grid-data>
</grid>
<valence-charge total-charge="14" is-unscreening-charge="yes"
 rescaled-to-z-pseudo="no">
<radfunc>
<data npts="457">
  4.551874876208E+00  4.555875965495E+00  4.567835458010E+00  4.587784356764E+00
  4.617047744497E+00  4.654372051135E+00  4.701917519979E+00  4.756328256468E+00
  4.817465180462E+00  4.888703978410E+00  4.968929023105E+00  5.056039622400E+00
  5.161193985305E+00  5.270871308459E+00  5.380286613976E+00  5.506131071875E+00
  5.650797347142E+00  5.787679233380E+00  5.941271654621E+00  6.113521640788E+00
  6.306577133787E+00  6.477581277126E+00  6.664721202812E+00  6.869405365887E+00
  7.093139867735E+00  7.337529215654E+00  7.604275314694E+00  7.820083524825E+00
  8.050266346192E+00  8.295639910376E+00  8.557042942735E+00  8.835332795240E+00
  9.131380381867E+00  9.446063832304E+00  9.780260656554E+00  1.013483818847E+01
  1.051064205083E+01  1.090848235902E+01  1.118632883673E+01  1.147451572848E+01
  1.177323414242E+01  1.208265511792E+01  1.240292610671E+01  1.273416710492E+01
  1.307646641499E+01  1.342987601734E+01  1.379440653309E+01  1.417002176125E+01
  1.455663277675E+01  1.495409157936E+01  1.536218428895E+01  1.578062388837E+01
  1.620904252337E+01  1.664698337822E+01  1.709389215737E+01  1.754910821646E+01
  1.801185540255E+01  1.848123268106E+01  1.895620464855E+01  1.943559205382E+01
  1.991806247721E+01  2.040212134688E+01  2.088610350395E+01  2.136816556284E+01
  2.184627935017E+01  2.231822674412E+01  2.278159627464E+01  2.300925753166E+01
  2.323378188318E+01  2.345481338810E+01  2.367198427621E+01  2.388491516544E+01
  2.409321533836E+01  2.429648308213E+01  2.449430609583E+01  2.468626196912E+01
  2.487191873625E+01  2.505083550926E+01  2.522256319406E+01  2.538664529303E+01
  2.554261879739E+01  2.569001517251E+01  2.582836143884E+01  2.595718135081E+01
  2.607599667562E+01  2.618432857322E+01  2.628169907842E+01  2.636763268492E+01
  2.644165803097E+01  2.650330968491E+01  2.655213002840E+01  2.658767123384E+01
  2.660949733168E+01  2.661718636206E+01  2.661033260404E+01  2.658854887441E+01
  2.655146888681E+01  2.649874966050E+01  2.643007396672E+01  2.634515279909E+01
  2.624372785333E+01  2.612557399977E+01  2.599050173110E+01  2.583835956630E+01
  2.566903639045E+01  2.548246370896E+01  2.527861779373E+01  2.505752169800E+01
  2.481924711565E+01  2.456391606056E+01  2.429170234121E+01  2.400283280574E+01
  2.369758833315E+01  2.337630454684E+01  2.303937222771E+01  2.268723740564E+01
  2.232040110950E+01  2.193941875861E+01  2.154489918049E+01  2.113750324331E+01
  2.071794209436E+01  2.028697499986E+01  1.984540678553E+01  1.939408488147E+01
  1.893389597995E+01  1.846576231927E+01  1.799063761205E+01  1.750950264129E+01
  1.702336055267E+01  1.653323187654E+01  1.604014931771E+01  1.554515235581E+01
  1.504928170272E+01  1.455357366760E+01  1.405905448247E+01  1.356673464400E+01
  1.307760332841E+01  1.259262293706E+01  1.211272383009E+01  1.163879930429E+01
  1.117170086909E+01  1.071223387167E+01  1.026115351793E+01  9.819161331275E+00
  9.386902085575E+00  8.964961241934E+00  8.553862912312E+00  8.154068365339E+00
  7.765975082116E+00  7.389916361915E+00  7.026161469955E+00  6.674916311889E+00
  6.336324612533E+00  6.010469569788E+00  5.697375948890E+00  5.397012577120E+00
  5.109295195072E+00  4.834089617607E+00  4.571215155672E+00  4.320448249428E+00
  4.081526263413E+00  3.854151395859E+00  3.637995365804E+00  3.432706990921E+00
  3.237921587722E+00  3.053264135480E+00  2.878352277939E+00  2.712799162286E+00
  2.556216098091E+00  2.408215015117E+00  2.268410712460E+00  2.136422892413E+00
  2.011877975332E+00  1.894410694411E+00  1.783665471895E+00  1.679297580844E+00
  1.580974099065E+00  1.488374664273E+00  1.401192041729E+00  1.319132517607E+00
  1.241916132850E+00  1.169276773343E+00  1.100962132581E+00  1.036733562630E+00
  9.763658279234E-01  9.196464473958E-01  8.663736838435E-01  8.163538123598E-01
  7.694011390067E-01  7.253379372562E-01  6.839943790212E-01  6.452084372573E-01
  6.088257631201E-01  5.746995405575E-01  5.426903211043E-01  5.126658415230E-01
  4.845008268038E-01  4.580767809044E-01  4.332817674661E-01  4.100101826016E-01
  3.881625217040E-01  3.676451420776E-01  3.483700230462E-01  3.302545250459E-01
  3.132211490676E-01  2.971972976723E-01  2.821150386641E-01  2.679108723776E-01
  2.545255034069E-01  2.419036174872E-01  2.299936641295E-01  2.187476455035E-01
  2.081209119741E-01  1.980719646057E-01  1.885622648782E-01  1.795560517834E-01
  1.710201664149E-01  1.629238841088E-01  1.552387541443E-01  1.479384469759E-01
  1.409986089294E-01  1.343967242648E-01  1.281119844828E-01  1.221251647247E-01
  1.164185070996E-01  1.109756107512E-01  1.057813284652E-01  1.008216696010E-01
  9.608370912738E-02  9.155550252608E-02  8.722600632805E-02  8.308500403723E-02
  7.912303719724E-02  7.533134135407E-02  7.170178666892E-02  6.822682293709E-02
  6.489942877242E-02  6.171306472108E-02  5.866163007432E-02  5.573942315606E-02
  5.294110486861E-02  5.026166528764E-02  4.769639310606E-02  4.524084773517E-02
  4.289083388062E-02  4.064237842003E-02  3.849170941835E-02  3.643523712638E-02
  3.446953681708E-02  3.259133332295E-02  3.079748714675E-02  2.908498202561E-02
  2.745091383667E-02  2.589248073947E-02  2.440697445711E-02  2.299177260429E-02
  2.164433197625E-02  2.036218271725E-02  1.914292329245E-02  1.798421619052E-02
  1.688378428862E-02  1.583940781435E-02  1.484892184321E-02  1.391021427043E-02
  1.302122420353E-02  1.217994072039E-02  1.138440194218E-02  1.063269437307E-02
  9.922952461492E-03  9.253358340569E-03  8.622141708475E-03  8.027579812440E-03
  7.467997503478E-03  6.941767332082E-03  6.447309658393E-03  5.983092753669E-03
  5.547632873026E-03  5.139494282604E-03  4.757289227293E-03  4.399677828050E-03
  4.065367900498E-03  3.753114689036E-03  3.461720512953E-03  3.190034323123E-03
  2.936951169677E-03  2.701411582686E-03  2.482400869249E-03  2.278948331530E-03
  2.090126411259E-03  1.915049766915E-03  1.752874290381E-03  1.602796070217E-03
  1.464050308902E-03  1.335910201455E-03  1.217685782782E-03  1.108722750880E-03
  1.008401272781E-03  9.161347797092E-04  8.313687575144E-04  7.535795379578E-04
  6.822730958843E-04  6.169838567975E-04  5.572735187902E-04  5.027298922453E-04
  4.529657601997E-04  4.076177617609E-04  3.663453005119E-04  3.288294794140E-04
  2.947720633501E-04  2.638944701227E-04  2.359367904511E-04  2.106568372823E-04
  1.878292245526E-04  1.672444753980E-04  1.487081597085E-04  1.320400608538E-04
  1.170733713615E-04  1.036539173050E-04  9.163941114831E-05  8.089873279299E-05
  7.131123857591E-05  6.276609797060E-05  5.516165774618E-05  4.840483333460E-05
  4.241052714755E-05  3.710107356769E-05  3.240571031505E-05  2.826007585826E-05
  2.460573250323E-05  2.138971474923E-05  1.856410245569E-05  1.608561831383E-05
  1.391524906687E-05  1.201788987182E-05  1.036201114770E-05  8.919347208121E-06
  7.664605934333E-06  6.575198706606E-06  5.630989779388E-06  4.814064258852E-06
  4.108513820699E-06  3.500239291651E-06  2.976769209817E-06  2.527093477038E-06
  2.141511220028E-06  1.811491986461E-06  1.529549416444E-06  1.289126548830E-06
  1.084491944878E-06  9.106458383502E-07  7.632355507601E-07  6.384794425336E-07
  5.330987047938E-07  4.442563318994E-07  3.695026507889E-07  3.067268240127E-07
  2.541137707637E-07  2.101058430685E-07  1.733703581871E-07  1.427649778368E-07
  1.173221399127E-07  9.621831899110E-08  7.875026806996E-08  6.432137482370E-08
  5.242762026205E-08  4.264410730497E-08  3.461340427948E-08  2.803549170963E-08
  2.265909599948E-08  1.827423662977E-08  1.470583239153E-08  1.180822943315E-08
  9.460529584502E-09  7.562611632964E-09  6.031751055308E-09  4.799755224771E-09
  3.810542452946E-09  3.018094799306E-09  1.247624565294E-09  9.718409057277E-10
  7.549414252033E-10  5.848234392373E-10  4.517686826215E-10  3.479954062177E-10
  2.672901372438E-10  2.047058146593E-10  1.563150615485E-10  1.190091204321E-10
  9.033448996907E-11  6.836059393463E-11  5.157291392558E-11  3.878695119875E-11
  2.907917289630E-11  2.173176357680E-11  1.618856203923E-11  1.202003133701E-11
  8.895500129480E-12  6.561237857245E-12  4.823194839076E-12  3.533460058951E-12
  2.579671693216E-12  1.876764782194E-12  1.360562383612E-12  9.828157298070E-13
  7.073792952783E-13  5.072715887312E-13  3.624246991778E-13  2.579674731484E-13
  1.829206113109E-13  1.292085466582E-13  9.091402066499E-14  6.371789004259E-14
  4.447975892082E-14  3.092525893640E-14  2.141377584684E-14  1.476661642459E-14
  1.014040154762E-14  6.934163020198E-15  4.721453624313E-15  3.200943249587E-15
  2.160619504742E-15  1.451957523390E-15  9.713635034484E-16  6.469021158283E-16
  4.288453075157E-16  2.829724446815E-16  1.858424083123E-16  1.214725641564E-16
  7.901680599793E-17  5.114975222339E-17  3.294768956598E-17  2.111728358905E-17
  1.346655849556E-17  8.543865863462E-18  5.392684471056E-18  3.385957287488E-18
  2.114737709710E-18  1.313718987795E-18  8.116922671672E-19  4.987638840071E-19
  3.047786906041E-19  1.851958360422E-19  1.118936683218E-19  6.721679241872E-20
  4.014375346399E-20  2.383393043486E-20  1.406630600995E-20  8.251634504614E-21
  4.811094280382E-21  2.787787976307E-21  1.605296265141E-21  9.185383576408E-22
  5.222195186154E-22  0.000000000000E+00  0.000000000000E+00  0.000000000000E+00
  0.000000000000E+00
</data>
</radfunc>
</valence-charge>
<pseudocore-charge matching-radius="0.473772423303"
 number-of-continuous-derivatives="4">
<annotation model-charge-form="Teter function with specified parameters" />
<radfunc>
<data npts="290">
  1.245441116660E+02  1.245186317622E+02  1.244424837885E+02  1.243155095926E+02
  1.241293475343E+02  1.238920751776E+02  1.235901022980E+02  1.232449052998E+02
  1.228575173291E+02  1.224067621623E+02  1.218999738495E+02  1.213506783032E+02
  1.206889731074E+02  1.200003984669E+02  1.193150846765E+02  1.185288585566E+02
  1.176276643397E+02  1.167775378896E+02  1.158265991811E+02  1.147638701081E+02
  1.135774386726E+02  1.125306224966E+02  1.113894224865E+02  1.101464692759E+02
  1.087940571969E+02  1.073241836987E+02  1.057286045868E+02  1.044443694869E+02
  1.030811146005E+02  1.016352645949E+02  1.001032823091E+02  9.848170759275E+01
  9.676720230458E+01  9.495660197825E+01  9.304697463117E+01  9.103568712939E+01
  8.892047942972E+01  8.669954688966E+01  8.515954214416E+01  8.357175762038E+01
  8.193611592892E+01  8.025269489542E+01  7.852174246838E+01  7.674369208619E+01
  7.491917840190E+01  7.304905324154E+01  7.113440164662E+01  6.917655782443E+01
  6.717712080048E+01  6.513796953604E+01  6.306127724119E+01  6.094952457976E+01
  5.880551142817E+01  5.663236681579E+01  5.443355664139E+01  5.221288872917E+01
  4.997451476084E+01  4.772292859782E+01  4.546296049254E+01  4.319976668217E+01
  4.093881386295E+01  3.868585806284E+01  3.644691746564E+01  3.422823879454E+01
  3.203625693937E+01  2.987754761266E+01  2.775877294663E+01  2.671645168906E+01
  2.568662009800E+01  2.467010679794E+01  2.366773311191E+01  2.268031059855E+01
  2.170863850828E+01  2.075350116670E+01  1.981566529430E+01  1.889587727296E+01
  1.799486037051E+01  1.711331193626E+01  1.625190058114E+01  1.541126335750E+01
  1.459200295480E+01  1.379468492822E+01  1.301983497866E+01  1.226793630330E+01
  1.153942703672E+01  1.083469780371E+01  1.015408940501E+01  9.497890658220E+00
  8.866336416025E+00  8.259605784260E+00  7.677820562087E+00  7.121043926289E+00
  6.589279381058E+00  6.082469993795E+00  5.600497936252E+00  5.143184348890E+00
  4.710289544504E+00  4.301513565068E+00  3.916497103274E+00  3.554822797452E+00
  3.216016905459E+00  2.899551359676E+00  2.604846201554E+00  2.331272390148E+00
  2.078154974865E+00  1.844776618237E+00  1.630381449984E+00  1.434179228981E+00
  1.255349785086E+00  1.093047708203E+00  9.464072474484E-01  8.145473790728E-01
  6.965769978307E-01  5.916001829617E-01  4.987214869198E-01  4.170511925462E-01
  3.457104826437E-01  2.838364649450E-01  2.305869953654E-01  1.851452432599E-01
  1.467239442174E-01  1.145692887672E-01  8.796439925560E-02  6.623235208084E-02
  4.873870840942E-02  3.489352339639E-02  2.415281169733E-02  1.601945558355E-02
  1.004355110834E-02  5.822197345873E-03  2.998743538482E-03  1.261518817534E-03
  3.420787673531E-04  1.301222550689E-05  8.536009557548E-05  4.057053316384E-04
  8.529993893880E-04  1.335195099907E-03  1.785758912244E-03  2.160136614101E-03
  2.432245870291E-03  2.591066169093E-03  2.637392055438E-03  2.580808946455E-03
  2.436942531362E-03  2.225022989223E-03  1.965794318306E-03  1.679787324797E-03
  1.385962681220E-03  1.100718386343E-03  8.372444054855E-04  6.051967064094E-04
  4.106537681596E-04  2.563113155401E-04  1.418658348517E-04  6.453457822258E-05
  1.965937459015E-05  1.343622218042E-06  3.076198379773E-06  1.830241652800E-05
  4.091020175004E-05  6.560885335024E-05  8.818755680262E-05  1.056505930880E-04
  1.162353662129E-04  1.193273631341E-04  1.152924883255E-04  1.052515100523E-04
  9.082339882766E-05  7.386408297536E-05  5.622472331190E-05  3.954932310057E-05
  2.512579614679E-05  1.379808532122E-05  5.940191619271E-06  1.486683557006E-06
  8.998014614738E-09  8.230935366927E-07  3.112089596358E-06  6.047536388932E-06
  8.894812340742E-06  1.109153924691E-05  1.229236453783E-05  1.237839613379E-05
  1.143435116282E-05  9.700492760430E-06  7.509188769511E-06  5.217120537100E-06
  3.143709986648E-06  1.524366314842E-06  4.840443405376E-07  3.288248568823E-08
  0.000000000000E+00  0.000000000000E+00  0.000000000000E+00  0.000000000000E+00
  0.000000000000E+00  0.000000000000E+00  0.000000000000E+00  0.000000000000E+00
  0.000000000000E+00  0.000000000000E+00  0.000000000000E+00  0.000000000000E+00
  0.000000000000E+00  0.000000000000E+00  0.000000000000E+00  0.000000000000E+00
  0.000000000000E+00  0.000000000000E+00  0.000000000000E+00  0.000000000000E+00
  0.000000000000E+00  0.000000000000E+00  0.000000000000E+00  0.000000000000E+00
  0.000000000000E+00  0.000000000000E+00  0.000000000000E+00  0.000000000000E+00
  0.000000000000E+00  0.000000000000E+00  0.000000000000E+00  0.000000000000E+00
  0.000000000000E+00  0.000000000000E+00  0.000000000000E+00  0.000000000000E+00
  0.000000000000E+00  0.000000000000E+00  0.000000000000E+00  0.000000000000E+00
  0.000000000000E+00  0.000000000000E+00  0.000000000000E+00  0.000000000000E+00
  0.000000000000E+00  0.000000000000E+00  0.000000000000E+00  0.000000000000E+00
  0.000000000000E+00  0.000000000000E+00  0.000000000000E+00  0.000000000000E+00
  0.000000000000E+00  0.000000000000E+00  0.000000000000E+00  0.000000000000E+00
  0.000000000000E+00  0.000000000000E+00  0.000000000000E+00  0.000000000000E+00
  0.000000000000E+00  0.000000000000E+00  0.000000000000E+00  0.000000000000E+00
  0.000000000000E+00  0.000000000000E+00  0.000000000000E+00  0.000000000000E+00
  0.000000000000E+00  0.000000000000E+00  0.000000000000E+00  0.000000000000E+00
  0.000000000000E+00  0.000000000000E+00  0.000000000000E+00  0.000000000000E+00
  0.000000000000E+00  0.000000000000E+00  0.000000000000E+00  0.000000000000E+00
  0.000000000000E+00  0.000000000000E+00  0.000000000000E+00  0.000000000000E+00
  0.000000000000E+00  0.000000000000E+00  0.000000000000E+00  0.000000000000E+00
  0.000000000000E+00  0.000000000000E+00  0.000000000000E+00  0.000000000000E+00
  0.000000000000E+00  0.000000000000E+00  0.000000000000E+00  0.000000000000E+00
  0.000000000000E+00  0.000000000000E+00
</data>
</radfunc>
</pseudocore-charge>
<semilocal-potentials set="scalar_relativistic">
<slps n="3" l="s" rc="1.30591028153" eref="-2.71913861574">
<radfunc>
<data npts="290">
 -1.096601349731E+01 -1.096732934445E+01 -1.097122421864E+01 -1.097771466308E+01
 -1.098723236937E+01 -1.099936800000E+01 -1.101482124412E+01 -1.103249816559E+01
 -1.105235053333E+01 -1.107547010323E+01 -1.110148906567E+01 -1.112972064812E+01
 -1.116377124862E+01 -1.119925256926E+01 -1.123461427510E+01 -1.127524217242E+01
 -1.132188838405E+01 -1.136596667833E+01 -1.141535826422E+01 -1.147066348777E+01
 -1.153253939343E+01 -1.158725007713E+01 -1.164701720795E+01 -1.171225960588E+01
 -1.178342026489E+01 -1.186096532456E+01 -1.194538232835E+01 -1.201350877585E+01
 -1.208600459484E+01 -1.216309287998E+01 -1.224499904187E+01 -1.233194914765E+01
 -1.242416794392E+01 -1.252187652687E+01 -1.262528962317E+01 -1.273461244396E+01
 -1.285003707418E+01 -1.297173835936E+01 -1.305643616730E+01 -1.314403099203E+01
 -1.323455559000E+01 -1.332803580840E+01 -1.342448971911E+01 -1.352392669472E+01
 -1.362634642538E+01 -1.373173787573E+01 -1.384007818132E+01 -1.395133148452E+01
 -1.406544771012E+01 -1.418236128161E+01 -1.430198977937E+01 -1.442423254290E+01
 -1.454896922004E+01 -1.467605826651E+01 -1.480533540086E+01 -1.493661202039E+01
 -1.506967358563E+01 -1.520427798242E+01 -1.534015387349E+01 -1.547699905442E+01
 -1.561447883402E+01 -1.575222446581E+01 -1.588983166746E+01 -1.602685927953E+01
 -1.616282813518E+01 -1.629722024053E+01 -1.642947840188E+01 -1.649462245807E+01
 -1.655900648039E+01 -1.662255004785E+01 -1.668517050398E+01 -1.674678305810E+01
 -1.680730091149E+01 -1.686663541059E+01 -1.692469622914E+01 -1.698139158058E+01
 -1.703662846145E+01 -1.709031292524E+01 -1.714235038514E+01 -1.719264594246E+01
 -1.724110473581E+01 -1.728763230427E+01 -1.733213495604E+01 -1.737452013187E+01
 -1.741469675184E+01 -1.745257553246E+01 -1.748806926125E+01 -1.752109301688E+01
 -1.755156432413E+01 -1.757940323666E+01 -1.760453234378E+01 -1.762687670258E+01
 -1.764636370179E+01 -1.766292286889E+01 -1.767648563674E+01 -1.768698508958E+01
 -1.769435571040E+01 -1.769853315212E+01 -1.769945405365E+01 -1.769705591873E+01
 -1.769127707114E+01 -1.768205669436E+01 -1.766933495830E+01 -1.765305322988E+01
 -1.763315435953E+01 -1.760958303139E+01 -1.758228616168E+01 -1.755121332763E+01
 -1.751631720768E+01 -1.747755401305E+01 -1.743488389059E+01 -1.738827127728E+01
 -1.733768518805E+01 -1.728309942015E+01 -1.722449266055E+01 -1.716184848605E+01
 -1.709515525098E+01 -1.702440586252E+01 -1.694959744998E+01 -1.687073094057E+01
 -1.678781056035E+01 -1.670084328410E+01 -1.660983826253E+01 -1.651480625775E+01
 -1.641575911949E+01 -1.631270933460E+01 -1.620566968110E+01 -1.609465301608E+01
 -1.597967222425E+01 -1.586074035150E+01 -1.573787094526E+01 -1.561107862215E+01
 -1.548037988161E+01 -1.534579418396E+01 -1.520734531095E+01 -1.506506302658E+01
 -1.491898505611E+01 -1.476915939971E+01 -1.461564699621E+01 -1.445852474851E+01
 -1.429788891816E+01 -1.413385888888E+01 -1.396658129017E+01 -1.379623445958E+01
 -1.362303320744E+01 -1.344723382968E+01 -1.326913929326E+01 -1.308910449448E+01
 -1.290754146355E+01 -1.272492435962E+01 -1.254179407014E+01 -1.235876219739E+01
 -1.217651418593E+01 -1.199581131839E+01 -1.181749128714E+01 -1.164246703807E+01