<?xml version="1.0" encoding="UTF-8" ?>
<psml version="1.1" energy_unit="hartree" length_unit="bohr"
 uuid="a2011870-be63-11e7-48b5-25877eccfc49"
 xmlns="http://esl.cecam.org/PSML/ns/1.1">
<provenance creator="ONCVPSP-3.3.0+psml-3.3.0-73 (scalar-relativistic)"
 date="2017-10-31">
<annotation action="semilocal-pseudopotential-generation"
 action-cont="projectors-generation" />
<input-file name="oncvpsp-input">
<![CDATA[# atsym z nc nv iexc psfile
Y 39 6 4 4 upf
# n l f
1 0 2.0
2 0 2.0
2 1 6.0
3 0 2.0
3 1 6.0
3 2 10.0
4 0 2.0
4 1 6.0
4 2 1.0
5 0 2.0
# lmax
2
# l rc ep ncon nbas qcut
0 1.6 0.0 4 7 7.0
1 1.5 0.0 4 9 8.6
2 1.55 0.0 4 9 8.8
# lloc lpopt rc5 dvloc0
4 5 1.5 0.0
# l nproj debl
0 2 1.0
1 2 2.0
2 2 3.2
# icmod fcfact
3 4 1.35
# epsh1 epsh2 depsh
-12.0 12.0 0.02
# rlmax drl
6.0 0.01
 0
]]>
</input-file>
</provenance>
<pseudo-atom-spec atomic-label="Y" atomic-number="39" z-pseudo="11"
 flavor="Hamann&apos;s oncvpsp" relativity="scalar" spin-dft="no"
 core-corrections="yes">
<annotation pseudo-energy="-38.3827087485" />
<exchange-correlation>
<annotation oncvpsp-xc-code="4" oncvpsp-xc-type="GGA -- Perdew-Burke-Ernzerhof" />
<libxc-info number-of-functionals="2">
<functional name="Perdew, Burke &amp; Ernzerhof (GGA)" type="exchange" id="101" />
<functional name="Perdew, Burke &amp; Ernzerhof (GGA)" type="correlation"
 id="130" />
</libxc-info>
</exchange-correlation>
<valence-configuration total-valence-charge="11">
<shell n="4" l="s" occupation="2" />
<shell n="4" l="p" occupation="6" />
<shell n="4" l="d" occupation="1" />
<shell n="5" l="s" occupation="2" />
</valence-configuration>
</pseudo-atom-spec>
<grid npts="457">
<annotation type="sampled from oncvpsp log grid"
 recipe="r(i:1..N) = r1*exp(a*(i-1)) + r=0; resampled"
 recipe-cont="r1: scale; a: step" scale="0.128205128205E-04"
 step="0.119285708653E-01" delta="0.500000000000E-02" rmax="44.2295149952" />
<grid-data>
  0.000000000000E+00  5.050590548830E-03  1.008815826517E-02  1.513384605994E-02
  2.015030444445E-02  2.527617477690E-02  3.059141388125E-02  3.572285924000E-02
  4.073163561015E-02  4.589199894225E-02  5.109302162005E-02  5.620897780706E-02
  6.183719588184E-02  6.722230113325E-02  7.307636941178E-02  7.849826132568E-02
  8.432242981903E-02  8.950466576223E-02  9.500538836940E-02  1.008441709977E-01
  1.070417899317E-01  1.122730220474E-01  1.177599093560E-01  1.235149459651E-01
  1.295512365812E-01  1.358825263501E-01  1.425232321553E-01  1.477158848294E-01
  1.530977251985E-01  1.586756460758E-01  1.644567914052E-01  1.704485654110E-01
  1.766586420811E-01  1.830949749956E-01  1.897658075127E-01  1.966796833273E-01
  2.038454574128E-01  2.112723073622E-01  2.163732659512E-01  2.215973820843E-01
  2.269476292774E-01  2.324270528386E-01  2.380387716024E-01  2.437859797039E-01
  2.496719483979E-01  2.557000279200E-01  2.618736493941E-01  2.681963267851E-01
  2.746716588990E-01  2.813033314314E-01  2.880951190655E-01  2.950508876202E-01
  3.021745962510E-01  3.094702997028E-01  3.169421506189E-01  3.245944019034E-01
  3.324314091430E-01  3.404576330853E-01  3.486776421785E-01  3.570961151713E-01
  3.657178437760E-01  3.745477353961E-01  3.835908159195E-01  3.928522325791E-01
  4.023372568825E-01  4.120512876126E-01  4.219998539007E-01  4.270638521475E-01
  4.321886183733E-01  4.373748817938E-01  4.426233803753E-01  4.479348609398E-01
  4.533100792711E-01  4.587498002224E-01  4.642547978250E-01  4.698258553989E-01
  4.754637656637E-01  4.811693308517E-01  4.869433628219E-01  4.927866831758E-01
  4.987001233739E-01  5.046845248544E-01  5.107407391526E-01  5.168696280224E-01
  5.230720635587E-01  5.293489283214E-01  5.357011154613E-01  5.421295288468E-01
  5.486350831930E-01  5.552187041913E-01  5.618813286416E-01  5.686239045853E-01
  5.754473914403E-01  5.823527601376E-01  5.893409932592E-01  5.964130851783E-01
  6.035700422005E-01  6.108128827069E-01  6.181426372994E-01  6.255603489470E-01
  6.330670731343E-01  6.406638780119E-01  6.483518445481E-01  6.561320666827E-01
  6.640056514829E-01  6.719737193007E-01  6.800374039323E-01  6.881978527794E-01
  6.964562270128E-01  7.048137017370E-01  7.132714661578E-01  7.218307237517E-01
  7.304926924367E-01  7.392586047460E-01  7.481297080029E-01  7.571072644989E-01
  7.661925516729E-01  7.753868622930E-01  7.846915046405E-01  7.941078026962E-01
  8.036370963286E-01  8.132807414845E-01  8.230401103823E-01  8.329165917069E-01
  8.429115908074E-01  8.530265298971E-01  8.632628482558E-01  8.736220024349E-01
  8.841054664641E-01  8.947147320617E-01  9.054513088464E-01  9.163167245526E-01
  9.273125252472E-01  9.384402755502E-01  9.497015588568E-01  9.610979775631E-01
  9.726311532938E-01  9.843027271334E-01  9.961143598590E-01  1.008067732177E+00
  1.020164544963E+00  1.032406519503E+00  1.044795397737E+00  1.057332942510E+00
  1.070020937820E+00  1.082861189074E+00  1.095855523343E+00  1.109005789623E+00
  1.122313859098E+00  1.135781625407E+00  1.149411004912E+00  1.163203936971E+00
  1.177162384215E+00  1.191288332826E+00  1.205583792819E+00  1.220050798333E+00
  1.234691407913E+00  1.249507704808E+00  1.264501797266E+00  1.279675818833E+00
  1.295031928659E+00  1.310572311803E+00  1.326299179545E+00  1.342214769699E+00
  1.358321346936E+00  1.374621203099E+00  1.391116657536E+00  1.407810057426E+00
  1.424703778116E+00  1.441800223453E+00  1.459101826134E+00  1.476611048048E+00
  1.494330380625E+00  1.512262345192E+00  1.530409493334E+00  1.548774407254E+00
  1.567359700141E+00  1.586168016543E+00  1.605202032742E+00  1.624464457135E+00
  1.643958030620E+00  1.663685526988E+00  1.683649753311E+00  1.703853550351E+00
  1.724299792955E+00  1.744991390471E+00  1.765931287156E+00  1.787122462602E+00
  1.808567932154E+00  1.830270747339E+00  1.852233996308E+00  1.874460804263E+00
  1.896954333914E+00  1.919717785921E+00  1.942754399352E+00  1.966067452145E+00
  1.989660261570E+00  2.013536184709E+00  2.037698618926E+00  2.062151002353E+00
  2.086896814381E+00  2.111939576154E+00  2.137282851067E+00  2.162930245280E+00
  2.188885408224E+00  2.215152033122E+00  2.241733857520E+00  2.268634663810E+00
  2.295858279776E+00  2.323408579133E+00  2.351289482083E+00  2.379504955868E+00
  2.408059015338E+00  2.436955723522E+00  2.466199192204E+00  2.495793582511E+00
  2.525743105501E+00  2.556052022767E+00  2.586724647040E+00  2.617765342805E+00
  2.649178526918E+00  2.680968669241E+00  2.713140293272E+00  2.745697976791E+00
  2.778646352513E+00  2.811990108743E+00  2.845733990048E+00  2.879882797929E+00
  2.914441391504E+00  2.949414688202E+00  2.984807664460E+00  3.020625356434E+00
  3.056872860711E+00  3.093555335040E+00  3.130677999060E+00  3.168246135049E+00
  3.206265088669E+00  3.244740269733E+00  3.283677152970E+00  3.323081278806E+00
  3.362958254151E+00  3.403313753201E+00  3.444153518240E+00  3.485483360459E+00
  3.527309160784E+00  3.569636870713E+00  3.612472513162E+00  3.655822183320E+00
  3.699692049520E+00  3.744088354114E+00  3.789017414363E+00  3.834485623336E+00
  3.880499450816E+00  3.927065444226E+00  3.974190229556E+00  4.021880512311E+00
  4.070143078459E+00  4.118984795400E+00  4.168412612945E+00  4.218433564300E+00
  4.269054767072E+00  4.320283424277E+00  4.372126825368E+00  4.424592347273E+00
  4.477687455440E+00  4.531419704905E+00  4.585796741364E+00  4.640826302260E+00
  4.696516217887E+00  4.752874412502E+00  4.809908905452E+00  4.867627812318E+00
  4.926039346065E+00  4.985151818218E+00  5.044973640037E+00  5.105513323717E+00
  5.166779483602E+00  5.228780837405E+00  5.291526207454E+00  5.355024521943E+00
  5.419284816207E+00  5.484316234001E+00  5.550128028809E+00  5.616729565155E+00
  5.684130319937E+00  5.752339883776E+00  5.821367962381E+00  5.891224377930E+00
  5.961919070465E+00  6.033462099311E+00  6.105863644502E+00  6.179134008236E+00
  6.253283616335E+00  6.328323019731E+00  6.404262895968E+00  6.481114050720E+00
  6.558887419328E+00  6.637594068360E+00  6.717245197181E+00  6.797852139547E+00
  6.879426365221E+00  6.961979481604E+00  7.045523235383E+00  7.130069514208E+00
  7.215630348378E+00  7.302217912559E+00  7.389844527509E+00  7.478522661840E+00
  7.568264933782E+00  7.659084112987E+00  7.750993122343E+00  7.844005039811E+00
  7.938133100289E+00  8.033390697492E+00  8.129791385862E+00  8.227348882492E+00
  8.326077069082E+00  8.425989993911E+00  8.527101873838E+00  8.629427096324E+00
  8.732980221480E+00  8.837775984138E+00  8.943829295948E+00  9.051155247499E+00
  9.159769110469E+00  9.269686339795E+00  9.380922575872E+00  9.493493646783E+00
  9.607415570544E+00  9.722704557391E+00  9.839377012079E+00  9.957449536224E+00
  1.007693893066E+01  1.019786219783E+01  1.032023654420E+01  1.044407938273E+01
  1.056940833532E+01  1.069624123535E+01  1.082459613017E+01  1.095449128373E+01
  1.108594517914E+01  1.121897652129E+01  1.135360423954E+01  1.148984749042E+01
  1.162772566030E+01  1.176725836823E+01  1.190846546865E+01  1.205136705427E+01
  1.219598345892E+01  1.234233526043E+01  1.249044328355E+01  1.264032860296E+01
  1.279201254619E+01  1.294551669675E+01  1.310086289711E+01  1.325807325187E+01
  1.341717013089E+01  1.357817617246E+01  1.374111428653E+01  1.390600765797E+01
  1.407287974987E+01  1.424175430687E+01  1.441265535855E+01  1.458560722285E+01
  1.476063450953E+01  1.493776212364E+01  1.511701526912E+01  1.529841945235E+01
  1.548200048578E+01  1.566778449161E+01  1.585579790551E+01  1.604606748038E+01
  1.623862029014E+01  1.643348373362E+01  1.663068553843E+01  1.683025376489E+01
  1.703221681007E+01  1.723660341179E+01  1.744344265273E+01  1.765276396456E+01
  1.786459713214E+01  1.807897229772E+01  1.829591996529E+01  1.851547100488E+01
  1.873765665694E+01  1.896250853682E+01  1.919005863926E+01  1.942033934293E+01
  1.965338341505E+01  1.988922401603E+01  2.012789470422E+01  2.036942944067E+01
  2.061386259396E+01  2.086122894509E+01  2.111156369243E+01  2.136490245674E+01
  2.162128128622E+01  2.188073666165E+01  2.214330550159E+01  2.240902516761E+01
  2.267793346962E+01  2.295006867126E+01  2.322546949531E+01  2.350417512926E+01
  2.378622523081E+01  2.407165993358E+01  2.436051985278E+01  2.465284609101E+01
  2.494868024411E+01  2.524806440704E+01  2.555104117992E+01  2.585765367408E+01
  2.616794551817E+01  2.648196086439E+01  2.679974439476E+01  2.712134132750E+01
  2.744679742343E+01  2.777615899251E+01  2.810947290042E+01  2.844678657522E+01
  2.878814801412E+01  2.913360579029E+01  2.948320905978E+01  2.983700756849E+01
  3.019505165932E+01  3.055739227923E+01  3.092408098658E+01  3.129516995842E+01
  3.167071199792E+01  3.205076054189E+01  3.243536966840E+01  3.282459410442E+01
  3.321848923367E+01  3.361711110447E+01  3.402051643773E+01  3.442876263498E+01
  3.484190778660E+01  3.526001068004E+01  3.568313080820E+01  3.611132837790E+01
  3.654466431843E+01  3.698320029026E+01  3.742699869374E+01  3.787612267806E+01
  3.833063615020E+01  3.879060378400E+01  3.925609102941E+01  3.972716412176E+01
  4.020389009122E+01  4.068633677232E+01  4.117457281359E+01  4.166866768735E+01
  4.216869169960E+01  4.267471599999E+01  4.318681259199E+01  4.370505434310E+01
  4.422951499521E+01
</grid-data>
</grid>
<valence-charge total-charge="11" is-unscreening-charge="yes"
 rescaled-to-z-pseudo="no">
<radfunc>
<data npts="457">
  4.318417618724E-02  4.331144174317E-02  4.369217174399E-02  4.432832979916E-02
  4.521482307274E-02  4.638403785135E-02  4.788006881834E-02  4.960125397676E-02
  5.154687775367E-02  5.382961080306E-02  5.642050481964E-02  5.925811804220E-02
  6.271743794199E-02  6.636531450417E-02  7.071450434232E-02  7.510768720635E-02
  8.022806032635E-02  8.514248565204E-02  9.073805578173E-02  9.711636918536E-02
  1.043958202525E-01  1.109603718343E-01  1.182711967917E-01  1.264208738047E-01
  1.355147266687E-01  1.456727403997E-01  1.570317744711E-01  1.664324251018E-01
  1.766701430274E-01  1.878268211038E-01  1.999930763580E-01  2.132692127924E-01
  2.277662831717E-01  2.436072566939E-01  2.609282988864E-01  2.798801691011E-01
  3.006297394843E-01  3.233616371248E-01  3.397174820698E-01  3.571103437254E-01
  3.756103976265E-01  3.952925719658E-01  4.162368226903E-01  4.385284140517E-01
  4.622582025043E-01  4.875229213297E-01  5.144254627716E-01  5.430751537767E-01
  5.735880206542E-01  6.060870370718E-01  6.407023487973E-01  6.775714674513E-01
  7.168394242646E-01  7.586588734094E-01  8.031901329025E-01  8.506011493504E-01
  9.010673709197E-01  9.547715108812E-01  1.011903181891E+00  1.072658378868E+00
  1.137238785902E+00  1.205850880172E+00  1.278704803342E+00  1.356012968477E+00
  1.437988368219E+00  1.524842547949E+00  1.616783205971E+00  1.664724135250E+00
  1.714011381739E+00  1.764668499693E+00  1.816718192809E+00  1.870182184880E+00
  1.925081081952E+00  1.981434225717E+00  2.039259537932E+00  2.098573355657E+00
  2.159390257137E+00  2.221722878196E+00  2.285581719069E+00  2.350974941608E+00
  2.417908156902E+00  2.486384203377E+00  2.556402915537E+00  2.627960883580E+00
  2.701051204204E+00  2.775663223042E+00  2.851782269235E+00  2.929389382813E+00
  3.008461035643E+00  3.088968846882E+00  3.170879293977E+00  3.254153420464E+00
  3.338746541950E+00  3.424607951856E+00  3.511680628700E+00  3.599900946870E+00
  3.689198393080E+00  3.779495290869E+00  3.870706535761E+00  3.962739343898E+00
  4.055493017170E+00  4.148858728111E+00  4.242719328009E+00  4.336949181880E+00
  4.431414034176E+00  4.525970909207E+00  4.620468050452E+00  4.714744903024E+00
  4.808632143644E+00  4.901951762516E+00  4.994517201497E+00  5.086133552901E+00
  5.176597823160E+00  5.265699265384E+00  5.353219784629E+00  5.438934419338E+00
  5.522611902039E+00  5.604015301881E+00  5.682902751036E+00  5.759028256304E+00
  5.832142596552E+00  5.901994305735E+00  5.968330740385E+00  6.030899229397E+00
  6.089448302937E+00  6.143728996131E+00  6.193496222052E+00  6.238510207285E+00
  6.278537982178E+00  6.313354916623E+00  6.342746291031E+00  6.366508891027E+00
  6.384452613263E+00  6.396402068771E+00  6.402198169366E+00  6.401699681816E+00
  6.394784733897E+00  6.381352255933E+00  6.361323341169E+00  6.334642508149E+00
  6.301278848380E+00  6.261227042806E+00  6.214508231048E+00  6.161170718029E+00
  6.101290503394E+00  6.034971620147E+00  5.962346270085E+00  5.883574744930E+00
  5.798845123569E+00  5.708372737461E+00  5.612399398110E+00  5.511192382498E+00
  5.405043174605E+00  5.294265963564E+00  5.179195901679E+00  5.060187128448E+00
  4.937610569998E+00  4.811851526800E+00  4.683307066379E+00  4.552383241781E+00
  4.419492160855E+00  4.285048935875E+00  4.149468547456E+00  4.013162661172E+00
  3.876536439312E+00  3.739985393886E+00  3.603892329886E+00  3.468624429776E+00
  3.334530530984E+00  3.201938647552E+00  3.071153784939E+00  2.942456093087E+00
  2.816099397240E+00  2.692310138728E+00  2.571287113658E+00  2.453203177330E+00
  2.338208225255E+00  2.226430168729E+00  2.117974869560E+00  2.012927119131E+00
  1.911352376955E+00  1.813299161203E+00  1.718799852268E+00  1.627871579496E+00
  1.540517120813E+00  1.456725828003E+00  1.376474564698E+00  1.299728651328E+00
  1.226442810640E+00  1.156562107887E+00  1.090022880314E+00  1.026753650357E+00
  9.666760190528E-01  9.097055344213E-01  8.557525316223E-01  8.047229414849E-01
  7.565190645517E-01  7.110403081903E-01  6.681838847376E-01  6.278454690419E-01
  5.899198141543E-01  5.543013242935E-01  5.208845845653E-01  4.895648472537E-01
  4.602384748211E-01  4.328033400498E-01  4.071591840303E-01  3.832079329532E-01
  3.608539748889E-01  3.400043979428E-01  3.205691913600E-01  3.024614113221E-01
  2.855973133294E-01  2.698964532028E-01  2.552817588739E-01  2.416795752458E-01
  2.290196845177E-01  2.172353044517E-01  2.062630671132E-01  1.960429806323E-01
  1.865183764875E-01  1.776358447010E-01  1.693451591502E-01  1.615991949439E-01
  1.543538395001E-01  1.475678986255E-01  1.412029985826E-01  1.352234846559E-01
  1.295963170034E-01  1.242909637192E-01  1.192792915490E-01  1.145354545043E-01
  1.100357807333E-01  1.057586581184E-01  1.016844191783E-01  9.779522593211E-02
  9.407495543150E-02  9.050908667425E-02  8.708458957962E-02  8.378981664793E-02
  8.061439784564E-02  7.754913916664E-02  7.458592522710E-02  7.171762616163E-02
  6.893800900597E-02  6.624165367894E-02  6.362387361419E-02  6.108064104028E-02
  5.860851686507E-02  5.620458508595E-02  5.386639162072E-02  5.159188743203E-02
  4.937937580256E-02  4.722746360557E-02  4.513501640698E-02  4.310111722895E-02
  4.112502880201E-02  3.920615913162E-02  3.734403020631E-02  3.553824967765E-02
  3.378848534757E-02  3.209444230491E-02  3.045584256172E-02  2.887240704892E-02
  2.734383984105E-02  2.586981449021E-02  2.444996235922E-02  2.308386285292E-02
  2.177103545388E-02  2.051093347419E-02  1.930293943777E-02  1.814636200767E-02
  1.704043437093E-02  1.598431398843E-02  1.497708361308E-02  1.401775346373E-02
  1.310526444748E-02  1.223849230982E-02  1.141625258151E-02  1.063730619229E-02
  9.900365618128E-03  9.204101429196E-03  8.547149108934E-03  7.928116020209E-03
  7.345588402404E-03  6.798138293046E-03  6.284330278772E-03  5.802727992619E-03
  5.351900287377E-03  4.930427027623E-03  4.536904455703E-03  4.169950099001E-03
  3.828207197156E-03  3.510348638209E-03  3.215080401876E-03  2.941144516217E-03
  2.687321540851E-03  2.452432595574E-03  2.235340957816E-03  2.034953255914E-03
  1.850220287731E-03  1.680137495833E-03  1.523745131315E-03  1.380128138574E-03
  1.248415792956E-03  1.127781122273E-03  1.017440141918E-03  9.166509316764E-04
  8.247125804053E-04  7.409640227578E-04  6.647827899049E-04  5.955836940173E-04
  5.328174640506E-04  4.759693482213E-04  4.245576965033E-04  3.781325345535E-04
  3.362741387034E-04  2.985916200710E-04  2.647215244373E-04  2.343264533263E-04
  2.070937106903E-04  1.827339787516E-04  1.609800258496E-04  1.415854485863E-04
  1.243234501178E-04  1.089856560989E-04  9.538096951533E-05  8.333446542895E-05
  7.268632648498E-05  6.329081988240E-05  5.501531637207E-05  4.773935171384E-05
  4.135373088943E-05  3.575967522669E-05  3.086801244289E-05  2.659840945958E-05
  2.287864768106E-05  1.964394026506E-05  1.683629075092E-05  1.440389225073E-05
  1.230056625542E-05  1.048523996439E-05  8.921460915588E-06  7.576947576177E-06
  6.423174453003E-06  5.434990198246E-06  4.590267119698E-06  3.869580456898E-06
  3.255915753625E-06  2.734402643278E-06  2.292073365401E-06  1.917644347799E-06
  1.601319217874E-06  1.334611647447E-06  1.110186485830E-06  9.217176945842E-07
  7.637616627715E-07  6.316445519391E-07  5.213623942390E-07  4.294927435818E-07
  3.531167574254E-07  2.897506645995E-07  2.372856515685E-07  1.939352749304E-07
  1.581895810917E-07  1.287751844022E-07  1.046206221649E-07  8.482636854487E-08
  6.863894926340E-08  5.542865495467E-08  4.467040312339E-08  3.592734677926E-08
  2.883687209959E-08  2.309866798929E-08  1.846458730756E-08  1.473005298038E-08
  1.172679240331E-08  9.316710661878E-09  7.386737364075E-09  5.844503503929E-09
  4.614723967522E-09  3.636178260324E-09  2.859196978385E-09  2.243574657844E-09
  1.756841099913E-09  1.372833253232E-09  1.070518402021E-09  8.330269045423E-10
  6.468591876985E-10  5.012372540221E-10  3.875757092176E-10  2.990513730879E-10
  2.302539850345E-10  1.769034384083E-10  1.356214478013E-10  1.037476334765E-10
  7.919175343169E-11  6.031527501479E-11  4.583669716843E-11  3.475604826927E-11
  2.629482508514E-11  1.984833308476E-11  1.494796074722E-11  1.123139072701E-11
  8.419135815854E-12  6.296102067498E-12  4.697137416998E-12  3.495731883006E-12
  2.595203574190E-12  1.921840389237E-12  1.419576454973E-12  1.045869917916E-12
  7.685187585224E-13  5.632071792968E-13  4.116195765728E-13  2.999943054527E-13
  2.180178322000E-13  1.579794565968E-13  1.308268978224E-14  8.819766329289E-15
  5.919508238085E-15  3.955119364614E-15  2.630604696398E-15  1.741606128623E-15
  1.147674386501E-15  7.527271245184E-16  4.913398815599E-16  3.191737614764E-16
  2.063231198909E-16  1.327145949719E-16  8.494029447366E-17  5.408875899915E-17
  3.426667855233E-17  2.159643179059E-17  1.353972271490E-17  8.443606957789E-18
  5.237321321452E-18  3.230914100084E-18  1.982203246061E-18  1.209341034871E-18
  7.336655722197E-19  4.425545322006E-19  2.654146862936E-19  1.582495393660E-19
  9.379696422430E-20  5.526281958421E-20  3.236264078534E-20  1.883605123576E-20
  1.089528796466E-20  6.262648396006E-21  3.576966692941E-21  2.029905629002E-21
  1.144477986709E-21  0.000000000000E+00  0.000000000000E+00  0.000000000000E+00
  0.000000000000E+00
</data>
</radfunc>
</valence-charge>
<pseudocore-charge matching-radius="0.873622002435"
 number-of-continuous-derivatives="4">
<annotation model-charge-form="Teter function with specified parameters" />
<radfunc>
<data npts="290">
  2.676667698647E+01  2.676512614673E+01  2.676049011425E+01  2.675275544846E+01
  2.674200125309E+01  2.672785998288E+01  2.670983604296E+01  2.668919558392E+01
  2.666598568837E+01  2.663891671557E+01  2.660840202800E+01  2.657523065543E+01
  2.653513558436E+01  2.649325390185E+01  2.644383984384E+01  2.639448189817E+01
  2.633763523451E+01  2.628374113403E+01  2.622314281566E+01  2.615502392514E+01
  2.607847344151E+01  2.601048373966E+01  2.593587795237E+01  2.585403334281E+01
  2.576427298219E+01  2.566586197712E+01  2.555800364646E+01  2.547039394529E+01
  2.537659730489E+01  2.527620172202E+01  2.516877158745E+01  2.505384694141E+01
  2.493094281373E+01  2.479954867316E+01  2.465912801403E+01  2.450911811268E+01
  2.434892999101E+01  2.417794862928E+01  2.405764951599E+01  2.393207329475E+01
  2.380101931039E+01  2.366428238115E+01  2.352165303958E+01  2.337291782219E+01
  2.321785961207E+01  2.305625803984E+01  2.288788994801E+01  2.271252992431E+01
  2.252995090982E+01  2.233992488796E+01  2.214222366050E+01  2.193661971706E+01
  2.172288720474E+01  2.150080300433E+01  2.127014791992E+01  2.103070798836E+01
  2.078227591500E+01  2.052465264174E+01  2.025764905320E+01  1.998108782587E+01
  1.969480542469E+01  1.939865425028E+01  1.909250493896E+01  1.877624881611E+01
  1.844980050168E+01  1.811310066464E+01  1.776611892042E+01  1.758877149658E+01
  1.740885686293E+01  1.722638073294E+01  1.704135121902E+01  1.685377893670E+01
  1.666367710995E+01  1.647106167750E+01  1.627595139994E+01  1.607836796737E+01
  1.587833610729E+01  1.567588369247E+01  1.547104184854E+01  1.526384506083E+01
  1.505433128029E+01  1.484254202791E+01  1.462852249734E+01  1.441232165533E+01
  1.419399233925E+01  1.397359135157E+01  1.375117955045E+01  1.352682193608E+01
  1.330058773206E+01  1.307255046131E+01  1.284278801579E+01  1.261138271942E+01
  1.237842138341E+01  1.214399535340E+01  1.190820054755E+01  1.167113748486E+01
  1.143291130299E+01  1.119363176456E+01  1.095341325135E+01  1.071237474543E+01
  1.047063979638E+01  1.022833647374E+01  9.985597303873E+00  9.742559190385E+00
  9.499363317188E+00  9.256155033498E+00  9.013083719882E+00  8.770302634609E+00
  8.527968739579E+00  8.286242505133E+00  8.045287693124E+00  7.805271117660E+00
  7.566362383064E+00  7.328733598605E+00  7.092559069721E+00  6.858014965513E+00
  6.625278962434E+00  6.394529864223E+00  6.165947198273E+00  5.939710788774E+00
  5.716000307169E+00  5.494994800585E+00  5.276872199162E+00  5.061808803346E+00
  4.849978752462E+00  4.641553476094E+00  4.436701130037E+00  4.235586018814E+00
  4.038368007014E+00  3.845201921945E+00  3.656236950359E+00  3.471616032233E+00
  3.291475254880E+00  3.115943250872E+00  2.945140603510E+00  2.779179263784E+00
  2.618161982992E+00  2.462181765359E+00  2.311321345155E+00  2.165652692957E+00
  2.025236555793E+00  1.890122035963E+00  1.760346213367E+00  1.635933816117E+00
  1.516896944159E+00  1.403234850476E+00  1.294933784257E+00  1.191966900150E+00
  1.094294237404E+00  1.001862772295E+00  9.146065467850E-01  8.324468758004E-01
  7.552926349413E-01  6.830406297218E-01  6.155760467256E-01  5.527729862366E-01
  4.944950750507E-01  4.405961572588E-01  3.909210598398E-01  3.453064289214E-01
  3.035816315656E-01  2.655697169406E-01  2.310884297466E-01  1.999512678142E-01
  1.719685748812E-01  1.469486587197E-01  1.246989240374E-01  1.050270089362E-01
  8.774191320823E-02  7.265510639001E-02  5.958160331228E-02  4.834099488025E-02
  3.875842202381E-02  3.066548117093E-02  2.390105023438E-02  1.831202496304E-02
  1.375395659328E-02  1.009158303741E-02  7.199247350515E-03  4.961198906802E-03
  3.271774565490E-03  2.035459082408E-03  1.166826089658E-03  5.903630776890E-04
  2.401859238299E-04  5.965056627391E-05  8.713678112443E-07  2.415749309139E-05
  9.738018151320E-05  1.952850821234E-04  2.987647790032E-04  3.941072342130E-04
  4.722360780847E-04  5.279584621312E-04  5.592355494958E-04  5.664896573902E-04
  5.519606063235E-04  5.191220088421E-04  4.721660982510E-04  4.155633222839E-04
  3.537003877583E-04  2.905978301201E-04  2.297055938182E-04  1.737726461735E-04
  1.247844079776E-04  8.395986139590E-05  5.179867148904E-05  2.816759729559E-05
  1.241491687318E-05  3.501568706307E-06  1.382134989963E-07  9.184117842861E-07
  4.439532889093E-06  9.404773443511E-06  1.470166172336E-05  1.945453542985E-05
  2.305057494692E-05  2.514092208437E-05  2.562009564546E-05  2.458822794176E-05
  2.230151499630E-05  1.911665479563E-05  1.543493679087E-05  1.165107462829E-05
  8.110912310022E-06  5.080882860578E-06  2.730682855887E-06  1.129183338935E-06
  2.522653319077E-07  1.709206154036E-10  2.211976801012E-07  7.381978904274E-07
  1.374394242215E-06  1.975464412718E-06  2.425608476251E-06  2.656290281742E-06
  2.647407793997E-06  2.421661103453E-06  2.033722788431E-06  1.556371949587E-06
  1.065968679123E-06  6.295066978175E-07  2.950258781581E-07  8.647646156924E-08
  3.319446526612E-09  0.000000000000E+00  0.000000000000E+00  0.000000000000E+00
  0.000000000000E+00  0.000000000000E+00  0.000000000000E+00  0.000000000000E+00
  0.000000000000E+00  0.000000000000E+00  0.000000000000E+00  0.000000000000E+00
  0.000000000000E+00  0.000000000000E+00  0.000000000000E+00  0.000000000000E+00
  0.000000000000E+00  0.000000000000E+00  0.000000000000E+00  0.000000000000E+00
  0.000000000000E+00  0.000000000000E+00  0.000000000000E+00  0.000000000000E+00
  0.000000000000E+00  0.000000000000E+00  0.000000000000E+00  0.000000000000E+00
  0.000000000000E+00  0.000000000000E+00  0.000000000000E+00  0.000000000000E+00
  0.000000000000E+00  0.000000000000E+00  0.000000000000E+00  0.000000000000E+00
  0.000000000000E+00  0.000000000000E+00  0.000000000000E+00  0.000000000000E+00
  0.000000000000E+00  0.000000000000E+00  0.000000000000E+00  0.000000000000E+00
  0.000000000000E+00  0.000000000000E+00
</data>
</radfunc>
</pseudocore-charge>
<semilocal-potentials set="scalar_relativistic">
<slps n="4" l="s" rc="1.60520203274" eref="-1.76376913733">
<radfunc>
<data npts="290">
  5.365029964204E+01  5.361145807632E+01  5.349559019164E+01  5.330308988990E+01
  5.303711252040E+01  5.269029422906E+01  5.225300772560E+01  5.175867196440E+01
  5.121083335484E+01  5.058240218983E+01  4.988717274684E+01  4.914682109736E+01
  4.827266098736E+01  4.738289836609E+01  4.636255695516E+01  4.537384089813E+01
  4.427109964800E+01  4.325954205747E+01  4.215962825109E+01  4.096813518405E+01
  3.968269279975E+01  3.858577070648E+01  3.742775076664E+01  3.620910585566E+01
  3.493094278588E+01  3.359505045271E+01  3.220393622710E+01  3.112628673667E+01
  3.002103174629E+01  2.889004974100E+01  2.773544569957E+01  2.655954068847E+01
  2.536485764722E+01  2.415410345819E+01  2.293014750731E+01  2.169599705573E+01
  2.045476984984E+01  1.920966449403E+01  1.837904270800E+01  1.754910864715E+01
  1.672082951763E+01  1.589516740080E+01  1.507307504262E+01  1.425549174457E+01
  1.344333939557E+01  1.263751868194E+01  1.183890550990E+01  1.104834767170E+01
  1.026666178296E+01  9.494630514594E+00  8.733000138786E+00  7.982478403648E+00
  7.243732747207E+00  6.517388856660E+00  5.804029574686E+00  5.104194150472E+00
  4.418377829284E+00  3.747031770905E+00  3.090563284052E+00  2.449336361147E+00
  1.823672495365E+00  1.213851759941E+00  6.201141280754E-01  4.266101056736E-02
 -5.183430125811E-01 -1.062768290922E+00 -1.590518057302E+00 -1.848117844183E+00
 -2.101526261268E+00 -2.350739480500E+00 -2.595755306719E+00 -2.836573103432E+00
 -3.073193718022E+00 -3.305619406565E+00 -3.533853758463E+00 -3.757901621039E+00
 -3.977769024277E+00 -4.193463105886E+00 -4.404992036823E+00 -4.612364947477E+00
 -4.815591854615E+00 -5.014683589285E+00 -5.209651725795E+00 -5.400508511887E+00
 -5.587266800267E+00 -5.769939981562E+00 -5.948541918842E+00 -6.123086883767E+00
 -6.293589494457E+00 -6.460064655131E+00 -6.622527497554E+00 -6.780993324344E+00
 -6.935477554092E+00 -7.085995668390E+00 -7.232563160427E+00 -7.375195485981E+00
 -7.513908014906E+00 -7.648715985666E+00 -7.779634460235E+00 -7.906678280970E+00
 -8.029862028608E+00 -8.149199981487E+00 -8.264706075831E+00 -8.376393867059E+00
 -8.484276492023E+00 -8.588366632147E+00 -8.688676477496E+00 -8.785217691797E+00
 -8.878001378530E+00 -8.967038048266E+00 -9.052337587457E+00 -9.133909228995E+00
 -9.211761524889E+00 -9.285902321507E+00 -9.356338737859E+00 -9.423077147492E+00
 -9.486123164586E+00 -9.545481634901E+00 -9.601156632229E+00 -9.653151461046E+00
 -9.701468666019E+00 -9.746110049039E+00 -9.787076694374E+00 -9.824369002513E+00
 -9.857986733199E+00 -9.887929058025E+00 -9.914194622958E+00 -9.936781620960E+00
 -9.955687874896E+00 -9.970910930738E+00 -9.982448161100E+00 -9.990296879083E+00
 -9.994454462428E+00 -9.994918488084E+00 -9.991686877417E+00 -9.984758052504E+00
 -9.974131104288E+00 -9.959805973667E+00 -9.941783647107E+00 -9.920066368785E+00
 -9.894657871881E+00 -9.865563632149E+00 -9.832791147477E+00 -9.796350247727E+00
 -9.756253439595E+00 -9.712516291750E+00 -9.665157865824E+00 -9.614201199169E+00
 -9.559673845459E+00 -9.501608479321E+00 -9.440043571182E+00 -9.375024138382E+00
 -9.306602578366E+00 -9.234839589335E+00 -9.159805183127E+00 -9.081579794280E+00