<?xml version="1.0" encoding="UTF-8" ?>
<psml version="1.1" energy_unit="hartree" length_unit="bohr"
 uuid="477329c0-be45-11e7-76dd-537d6b1f326b"
 xmlns="http://esl.cecam.org/PSML/ns/1.1">
<provenance creator="ONCVPSP-3.3.0+psml-3.3.0-73 (scalar-relativistic)"
 date="2017-10-31">
<annotation action="semilocal-pseudopotential-generation"
 action-cont="projectors-generation" />
<input-file name="oncvpsp-input">
<![CDATA[# atsym z nc nv iexc psfile
Sb 51 8 3 4 upf
# n l f
1 0 2.0
2 0 2.0
2 1 6.0
3 0 2.0
3 1 6.0
3 2 10.0
4 0 2.0
4 1 6.0
4 2 10.0
5 0 2.0
5 1 3.0
# lmax
2
# l rc ep ncon nbas qcut
0 1.8 0.0 4 7 3.2
1 2.1 0.0 4 7 4.6
2 1.8 0.0 4 7 9.2
# lloc lpopt rc5 dvloc0
4 5 1.6 0.0
# l nproj debl
0 2 0.5
1 2 3.0
2 2 1.6
# icmod fcfact
3 5 1.41
# epsh1 epsh2 depsh
-12.0 12.0 0.02
# rlmax drl
6.0 0.01
 0
]]>
</input-file>
</provenance>
<pseudo-atom-spec atomic-label="Sb" atomic-number="51" z-pseudo="15"
 flavor="Hamann&apos;s oncvpsp" relativity="scalar" spin-dft="no"
 core-corrections="yes">
<annotation pseudo-energy="-80.1964332498" />
<exchange-correlation>
<annotation oncvpsp-xc-code="4" oncvpsp-xc-type="GGA -- Perdew-Burke-Ernzerhof" />
<libxc-info number-of-functionals="2">
<functional name="Perdew, Burke &amp; Ernzerhof (GGA)" type="exchange" id="101" />
<functional name="Perdew, Burke &amp; Ernzerhof (GGA)" type="correlation"
 id="130" />
</libxc-info>
</exchange-correlation>
<valence-configuration total-valence-charge="15">
<shell n="4" l="d" occupation="10" />
<shell n="5" l="s" occupation="2" />
<shell n="5" l="p" occupation="3" />
</valence-configuration>
</pseudo-atom-spec>
<grid npts="457">
<annotation type="sampled from oncvpsp log grid"
 recipe="r(i:1..N) = r1*exp(a*(i-1)) + r=0; resampled"
 recipe-cont="r1: scale; a: step" scale="0.980392156863E-05"
 step="0.119285708653E-01" delta="0.500000000000E-02" rmax="43.9721684583" />
<grid-data>
  0.000000000000E+00  5.021204018428E-03  1.002946097687E-02  1.504579076758E-02
  2.027345795207E-02  2.543065629312E-02  3.077838077958E-02  3.594118822007E-02
  4.098057695047E-02  4.617247910357E-02  5.140528910190E-02  5.655251270478E-02
  6.221512900910E-02  6.763314664665E-02  7.265117934131E-02  7.804152433212E-02
  8.383180528246E-02  8.898388872515E-02  9.445260573801E-02  1.002574157919E-01
  1.064189742860E-01  1.116197688201E-01  1.170747310341E-01  1.227962823396E-01
  1.287974511941E-01  1.350919027679E-01  1.416939700613E-01  1.468564096257E-01
  1.522069361091E-01  1.577524022190E-01  1.634999103328E-01  1.694568215939E-01
  1.756307653396E-01  1.820296488724E-01  1.886616675873E-01  1.955353154683E-01
  2.026593959664E-01  2.100430332757E-01  2.151143122711E-01  2.203080322266E-01
  2.256271493567E-01  2.310746912507E-01  2.366537585963E-01  2.423675269438E-01
  2.482192485144E-01  2.542122540505E-01  2.603499547123E-01  2.666358440189E-01
  2.730734998369E-01  2.796665864169E-01  2.864188564794E-01  2.933341533502E-01
  3.004164131487E-01  3.076696670278E-01  3.150980434685E-01  3.227057706300E-01
  3.304971787561E-01  3.384767026400E-01  3.466488841485E-01  3.550183748074E-01
  3.635899384487E-01  3.723684539226E-01  3.813589178741E-01  3.905664475873E-01
  3.999962838978E-01  4.096537941763E-01  4.195444753829E-01  4.245790090875E-01
  4.296739571965E-01  4.348300446829E-01  4.400480052191E-01  4.453285812817E-01
  4.506725242571E-01  4.560805945481E-01  4.615535616827E-01  4.670922044229E-01
  4.726973108760E-01  4.783696786065E-01  4.841101147498E-01  4.899194361268E-01
  4.957984693603E-01  5.017480509926E-01  5.077690276045E-01  5.138622559358E-01
  5.200286030070E-01  5.262689462431E-01  5.325841735980E-01  5.389751836812E-01
  5.454428858854E-01  5.519882005160E-01  5.586120589222E-01  5.653154036293E-01
  5.720991884728E-01  5.789643787345E-01  5.859119512793E-01  5.929428946946E-01
  6.000582094310E-01  6.072589079442E-01  6.145460148395E-01  6.219205670176E-01
  6.293836138218E-01  6.369362171876E-01  6.445794517939E-01  6.523144052154E-01
  6.601421780780E-01  6.680638842149E-01  6.760806508255E-01  6.841936186354E-01
  6.924039420590E-01  7.007127893637E-01  7.091213428361E-01  7.176307989501E-01
  7.262423685375E-01  7.349572769600E-01  7.437767642835E-01  7.527020854549E-01
  7.617345104804E-01  7.708753246061E-01  7.801258285014E-01  7.894873384434E-01
  7.989611865048E-01  8.085487207428E-01  8.182513053917E-01  8.280703210564E-01
  8.380071649091E-01  8.480632508880E-01  8.582400098987E-01  8.685388900175E-01
  8.789613566977E-01  8.895088929780E-01  9.001829996938E-01  9.109851956901E-01
  9.219170180384E-01  9.329800222548E-01  9.441757825219E-01  9.555058919122E-01
  9.669719626151E-01  9.785756261665E-01  9.903185336805E-01  1.002202356085E+00
  1.014228784358E+00  1.026399529770E+00  1.038716324127E+00  1.051180920017E+00
  1.063795091057E+00  1.076560632150E+00  1.089479359735E+00  1.102553112052E+00
  1.115783749397E+00  1.129173154390E+00  1.142723232242E+00  1.156435911029E+00
  1.170313141962E+00  1.184356899665E+00  1.198569182461E+00  1.212952012651E+00
  1.227507436802E+00  1.242237526044E+00  1.257144376357E+00  1.272230108873E+00
  1.287496870179E+00  1.302946832621E+00  1.318582194613E+00  1.334405180948E+00
  1.350418043120E+00  1.366623059637E+00  1.383022536353E+00  1.399618806789E+00
  1.416414232470E+00  1.433411203260E+00  1.450612137699E+00  1.468019483352E+00
  1.485635717152E+00  1.503463345758E+00  1.521504905907E+00  1.539762964778E+00
  1.558240120355E+00  1.576939001799E+00  1.595862269821E+00  1.615012617059E+00
  1.634392768463E+00  1.654005481685E+00  1.673853547465E+00  1.693939790035E+00
  1.714267067515E+00  1.734838272325E+00  1.755656331593E+00  1.776724207572E+00
  1.798044898063E+00  1.819621436840E+00  1.841456894082E+00  1.863554376811E+00
  1.885917029333E+00  1.908548033685E+00  1.931450610089E+00  1.954628017410E+00
  1.978083553619E+00  2.001820556262E+00  2.025842402938E+00  2.050152511773E+00
  2.074754341914E+00  2.099651394017E+00  2.124847210745E+00  2.150345377274E+00
  2.176149521801E+00  2.202263316063E+00  2.228690475856E+00  2.255434761566E+00
  2.282499978705E+00  2.309889978449E+00  2.337608658191E+00  2.365659962089E+00
  2.394047881634E+00  2.422776456214E+00  2.451849773688E+00  2.481271970973E+00
  2.511047234624E+00  2.541179801440E+00  2.571673959057E+00  2.602534046566E+00
  2.633764455124E+00  2.665369628586E+00  2.697354064129E+00  2.729722312899E+00
  2.762478980653E+00  2.795628728421E+00  2.829176273162E+00  2.863126388440E+00
  2.897483905101E+00  2.932253711963E+00  2.967440756506E+00  3.003050045584E+00
  3.039086646131E+00  3.075555685885E+00  3.112462354115E+00  3.149811902365E+00
  3.187609645193E+00  3.225860960936E+00  3.264571292467E+00  3.303746147976E+00
  3.343391101752E+00  3.383511794973E+00  3.424113936513E+00  3.465203303751E+00
  3.506785743396E+00  3.548867172317E+00  3.591453578385E+00  3.634551021325E+00
  3.678165633581E+00  3.722303621184E+00  3.766971264638E+00  3.812174919814E+00
  3.857921018852E+00  3.904216071078E+00  3.951066663931E+00  3.998479463898E+00
  4.046461217465E+00  4.095018752074E+00  4.144158977099E+00  4.193888884824E+00
  4.244215551442E+00  4.295146138060E+00  4.346687891716E+00  4.398848146417E+00
  4.451634324174E+00  4.505053936064E+00  4.559114583297E+00  4.613823958296E+00
  4.669189845796E+00  4.725220123945E+00  4.781922765433E+00  4.839305838618E+00
  4.897377508681E+00  4.956146038786E+00  5.015619791251E+00  5.075807228746E+00
  5.136716915491E+00  5.198357518477E+00  5.260737808699E+00  5.323866662403E+00
  5.387753062352E+00  5.452406099100E+00  5.517834972289E+00  5.584048991957E+00
  5.651057579860E+00  5.718870270818E+00  5.787496714068E+00  5.856946674637E+00
  5.927230034733E+00  5.998356795150E+00  6.070337076691E+00  6.143181121612E+00
  6.216899295071E+00  6.291502086612E+00  6.367000111651E+00  6.443404112991E+00
  6.520724962347E+00  6.598973661895E+00  6.678161345838E+00  6.758299281988E+00
  6.839398873372E+00  6.921471659852E+00  7.004529319770E+00  7.088583671608E+00
  7.173646675667E+00  7.259730435775E+00  7.346847201004E+00  7.435009367416E+00
  7.524229479825E+00  7.614520233583E+00  7.705894476386E+00  7.798365210103E+00
  7.891945592624E+00  7.986648939736E+00  8.082488727012E+00  8.179478591737E+00
  8.277632334837E+00  8.376963922855E+00  8.477487489930E+00  8.579217339809E+00
  8.682167947887E+00  8.786353963261E+00  8.891790210820E+00  8.998491693350E+00
  9.106473593670E+00  9.215751276794E+00  9.326340292116E+00  9.438256375621E+00
  9.551515452129E+00  9.666133637554E+00  9.782127241205E+00  9.899512768099E+00
  1.001830692132E+01  1.013852660437E+01  1.026018892362E+01  1.038331119071E+01
  1.050791092500E+01  1.063400585610E+01  1.076161392637E+01  1.089075329349E+01
  1.102144233301E+01  1.115369964100E+01  1.128754403670E+01  1.142299456514E+01
  1.156007049992E+01  1.169879134592E+01  1.183917684207E+01  1.198124696417E+01
  1.212502192774E+01  1.227052219088E+01  1.241776845717E+01  1.256678167865E+01
  1.271758305880E+01  1.287019405550E+01  1.302463638417E+01  1.318093202078E+01
  1.333910320503E+01  1.349917244349E+01  1.366116251281E+01  1.382509646296E+01
  1.399099762052E+01  1.415888959197E+01  1.432879626707E+01  1.450074182227E+01
  1.467475072414E+01  1.485084773283E+01  1.502905790562E+01  1.520940660049E+01
  1.539191947970E+01  1.557662251345E+01  1.576354198362E+01  1.595270448742E+01
  1.614413694127E+01  1.633786658456E+01  1.653392098358E+01  1.673232803538E+01
  1.693311597181E+01  1.713631336347E+01  1.734194912383E+01  1.755005251332E+01
  1.776065314347E+01  1.797378098120E+01  1.818946635297E+01  1.840773994921E+01
  1.862863282860E+01  1.885217642254E+01  1.907840253961E+01  1.930734337009E+01
  1.953903149053E+01  1.977349986841E+01  2.001078186683E+01  2.025091124924E+01
  2.049392218423E+01  2.073984925044E+01  2.098872744144E+01  2.124059217074E+01
  2.149547927679E+01  2.175342502811E+01  2.201446612845E+01  2.227863972199E+01
  2.254598339865E+01  2.281653519944E+01  2.309033362183E+01  2.336741762529E+01
  2.364782663680E+01  2.393160055644E+01  2.421877976311E+01  2.450940512027E+01
  2.480351798172E+01  2.510116019750E+01  2.540237411987E+01  2.570720260930E+01
  2.601568904062E+01  2.632787730910E+01  2.664381183681E+01  2.696353757885E+01
  2.728710002980E+01  2.761454523016E+01  2.794591977292E+01  2.828127081020E+01
  2.862064605992E+01  2.896409381264E+01  2.931166293839E+01  2.966340289365E+01
  3.001936372837E+01  3.037959609311E+01  3.074415124623E+01  3.111308106119E+01
  3.148643803392E+01  3.186427529033E+01  3.224664659381E+01  3.263360635294E+01
  3.302520962917E+01  3.342151214472E+01  3.382257029046E+01  3.422844113394E+01
  3.463918242755E+01  3.505485261668E+01  3.547551084808E+01  3.590121697826E+01
  3.633203158200E+01  3.676801596098E+01  3.720923215251E+01  3.765574293834E+01
  3.810761185360E+01  3.856490319585E+01  3.902768203420E+01  3.949601421861E+01
  3.996996638923E+01  4.044960598590E+01  4.093500125773E+01  4.142622127283E+01
  4.192333592810E+01  4.242641595924E+01  4.293553295075E+01  4.345075934616E+01
  4.397216845831E+01
</grid-data>
</grid>
<valence-charge total-charge="15" is-unscreening-charge="yes"
 rescaled-to-z-pseudo="no">
<radfunc>
<data npts="457">
  4.561237638039E-03  4.565206288171E-03  4.580859314709E-03  4.619611075056E-03
  4.705061631026E-03  4.863425288564E-03  5.145339927956E-03  5.578229213587E-03
  6.205096962042E-03  7.123133829293E-03  8.398805457679E-03  1.007423078893E-02
  1.249955280919E-02  1.549905048851E-02  1.896981567567E-02  2.355315822995E-02
  2.960459790853E-02  3.610203231176E-02  4.428713446185E-02  5.459344862321E-02
  6.756313015677E-02  8.030595464262E-02  9.560460951839E-02  1.139606086946E-01
  1.359698487889E-01  1.623390144443E-01  1.939043811701E-01  2.215759710851E-01
  2.532021052485E-01  2.893243682829E-01  3.305528058997E-01  3.775732126403E-01
  4.311548588257E-01  4.921585899920E-01  5.615451983452E-01  6.403839237198E-01
  7.298608898252E-01  8.312872188251E-01  9.062505330165E-01  9.876251968097E-01
  1.075901136371E+00  1.171596918448E+00  1.275260038861E+00  1.387466947634E+00
  1.508822758196E+00  1.639960581920E+00  1.781540422927E+00  1.934247561438E+00
  2.098790347379E+00  2.275897319358E+00  2.466313557874E+00  2.670796175908E+00
  2.890108845074E+00  3.125015251796E+00  3.376271375802E+00  3.644616483124E+00
  3.930762728399E+00  4.235383267060E+00  4.559098787877E+00  4.902462390945E+00
  5.265942756470E+00  5.649905576500E+00  6.054593256014E+00  6.480102932375E+00
  6.926362913977E+00  7.393107700701E+00  7.879851821113E+00  8.130505133219E+00
  8.385862804497E+00  8.645790172218E+00  8.910133699743E+00  9.178720130381E+00
  9.451355657334E+00  9.727825115813E+00  1.000789120391E+01  1.029129373931E+01
  1.057774895943E+01  1.086694887301E+01  1.115856067180E+01  1.145222621117E+01
  1.174756156932E+01  1.204415669471E+01  1.234157515212E+01  1.263935397771E+01
  1.293700365403E+01  1.323400821584E+01  1.352982549787E+01  1.382388753576E+01
  1.411560113102E+01  1.440434859102E+01  1.468948865451E+01  1.497035761270E+01
  1.524627063540E+01  1.551652331093E+01  1.578039340758E+01  1.603714286312E+01
  1.628602000788E+01  1.652626202500E+01  1.675709765005E+01  1.697775011002E+01
  1.718744029980E+01  1.738539019165E+01  1.757082647072E+01  1.774298438704E+01
  1.790111181107E+01  1.804447347729E+01  1.817235539666E+01  1.828406941546E+01
  1.837895789487E+01  1.845639848170E+01  1.851580893739E+01  1.855665198907E+01
  1.857844016281E+01  1.858074055622E+01  1.856317950454E+01  1.852544709169E+01
  1.846730145533E+01  1.838857283353E+01  1.828916729879E+01  1.816907012500E+01
  1.802834873235E+01  1.786715515657E+01  1.768572798974E+01  1.748439374286E+01
  1.726356758348E+01  1.702375340603E+01  1.676554319771E+01  1.648961566926E+01
  1.619673412697E+01  1.588774357041E+01  1.556356700974E+01  1.522520100566E+01
  1.487371044612E+01  1.451022258451E+01  1.413592037545E+01  1.375203515601E+01
  1.335983873132E+01  1.296063493512E+01  1.255575074611E+01  1.214652705108E+01
  1.173430915477E+01  1.132043714365E+01  1.090623621737E+01  1.049300710541E+01
  1.008201668931E+01  9.674488950732E+00  9.271596363784E+00  8.874451845577E+00
  8.484101372492E+00  8.101517360520E+00  7.727592897025E+00  7.363136898151E+00
  7.008870251217E+00  6.665422985171E+00  6.333332494770E+00  6.013042826091E+00
  5.704905012674E+00  5.409178433496E+00  5.126033146591E+00  4.855553135820E+00
  4.597740393629E+00  4.352519749800E+00  4.119744345718E+00  3.899201645629E+00
  3.690619870997E+00  3.493674741436E+00  3.307996405757E+00  3.133176449321E+00
  2.968774868967E+00  2.814326913946E+00  2.669349700293E+00  2.533348516463E+00
  2.405822749530E+00  2.286271373311E+00  2.174197952147E+00  2.069115126314E+00
  1.970548556893E+00  1.878040319152E+00  1.791151743784E+00  1.709465714768E+00
  1.632588440783E+00  1.560150724285E+00  1.491808758210E+00  1.427244485098E+00
  1.366165557274E+00  1.308304939440E+00  1.253420196732E+00  1.201292512067E+00
  1.151725476492E+00  1.104543695362E+00  1.059590597387E+00  1.016723676995E+00
  9.758088100168E-01  9.367199800038E-01  8.993393439362E-01  8.635569816227E-01
  8.292707474120E-01  7.963860791034E-01  7.648157878213E-01  7.344798290486E-01
  7.053050568108E-01  6.772249630171E-01  6.501794039205E-01  6.241142127168E-01
  5.989803735452E-01  5.747329520673E-01  5.513306668038E-01  5.287357449935E-01
  5.069135805390E-01  4.858324802194E-01  4.654634092160E-01  4.457797499954E-01
  4.267570737891E-01  4.083729249224E-01  3.906066181386E-01  3.734390489539E-01
  3.568525169776E-01  3.408305620447E-01  3.253578129336E-01  3.104198483712E-01
  2.960030699717E-01  2.820945867041E-01  2.686821104429E-01  2.557538621215E-01
  2.432984879791E-01  2.313049853797E-01  2.197626376214E-01  2.086609572530E-01
  1.979896372685E-01  1.877385096512E-01  1.778975107080E-01  1.684566526440E-01
  1.594060008410E-01  1.507356563177E-01  1.424357428672E-01  1.344963983848E-01
  1.269077699231E-01  1.196600120329E-01  1.127432879730E-01  1.061477733968E-01
  9.986366215016E-02  9.388117383948E-02  8.819056285683E-02  8.278212857176E-02
  7.764622642662E-02  7.277327969481E-02  6.815379168306E-02  6.377835819238E-02
  5.963768004019E-02  5.572257551238E-02  5.202399259378E-02  4.853302085800E-02
  4.524090290993E-02  4.213904528783E-02  3.921902874470E-02  3.647261784048E-02
  3.389176978719E-02  3.146864249989E-02  2.919560181519E-02  2.706522784899E-02
  2.507032047310E-02  2.320390389949E-02  2.145923036840E-02  1.982978294482E-02
  1.830927743479E-02  1.689166344047E-02  1.557112457911E-02  1.434207789736E-02
  1.319917251778E-02  1.213728755941E-02  1.115152937807E-02  1.023722817608E-02
  9.389934033290E-03  8.605412413614E-03  7.879639202371E-03  7.208795330241E-03
  6.589261039549E-03  6.017609847775E-03  5.490602261856E-03  5.005179295003E-03
  4.558455835484E-03  4.147713914188E-03  3.770395914858E-03  3.424097767740E-03
  3.106562164081E-03  2.815671825484E-03  2.549442858703E-03  2.306018222953E-03
  2.083661333445E-03  1.880749821479E-03  1.695769468230E-03  1.527308326274E-03
  1.374051039985E-03  1.234773373214E-03  1.108336950126E-03  9.936842127760E-04
  8.898335968963E-04  7.958749255503E-04  7.109650186526E-04  6.343235149902E-04
  5.652289022093E-04  5.030147492899E-04  4.470661352914E-04  3.968162676063E-04
  3.517432825834E-04  3.113672211612E-04  2.752471720654E-04  2.429785751472E-04
  2.141906775555E-04  1.885441356219E-04  1.657287555754E-04  1.454613664762E-04
  1.274838190536E-04  1.115611044301E-04  9.747958701503E-05  8.504534613658E-05
  7.408262125121E-05  6.443235582196E-05  5.595083518348E-05  4.850841391840E-05
  4.198832845285E-05  3.628559074224E-05  3.130595906328E-05  2.696498205772E-05
  2.318711228965E-05  1.990488568476E-05  1.705816331944E-05  1.459343212185E-05
  1.246316113915E-05  1.062521011626E-05  9.042287223523E-06  7.681452864666E-06
  6.513666593101E-06  5.513374264744E-06  4.658132658920E-06  3.928268905874E-06
  3.306572169534E-06  2.778015147025E-06  2.329503061569E-06  1.949647942103E-06
  1.628566100575E-06  1.357696835675E-06  1.129640509018E-06  9.380142558441E-07
  7.773237064056E-07  6.428492058330E-07  5.305451287947E-07  4.369509902460E-07
  3.591131545571E-07  2.945160419935E-07  2.410218236104E-07  1.968176829335E-07
  1.603698051811E-07  1.303833321783E-07  1.057675935059E-07  8.560599184750E-08
  6.912998303918E-08  5.569664909357E-08  4.476941563518E-08  3.590151390852E-08
  2.872183201818E-08  2.292284054195E-08  1.825031435338E-08  1.449460563403E-08
  1.148325288561E-08  9.074737506387E-09  7.153223408400E-09  5.624136451663E-09
  4.410459379790E-09  3.449634670526E-09  2.690982466469E-09  2.093553716549E-09
  1.624350016334E-09  1.256851551893E-09  9.698031821900E-10  7.462161812458E-10
  5.725496341439E-10  4.380410593543E-10  3.341606217985E-10  2.541674040761E-10
  1.927497049359E-10  1.457343127918E-10  1.098522276730E-10  8.255043935986E-11
  6.184116726559E-11  4.618147693876E-11  3.437745096481E-11  2.550814524521E-11
  1.886543699413E-11  1.390659589011E-11  1.021700840428E-11  7.480977778277E-12
  5.458925866063E-12  3.969652912715E-12  2.876579897101E-12  2.077115934781E-12
  1.494469359054E-12  1.071362959701E-12  7.652277108638E-13  5.445403575691E-13
  3.860427573805E-13  2.726384378443E-13  1.918073467908E-13  1.344156257058E-13
  9.382536936380E-14  6.523132438948E-14  4.516859955647E-14  3.114873687851E-14
  2.139174670697E-14  1.462959797878E-14  9.962697652213E-15  6.755503636469E-15
  4.560918093474E-15  3.065757754559E-15  2.051593920014E-15  1.366751881223E-15
  9.063774375730E-16  5.983092962223E-16  3.931112944722E-16  2.570715069622E-16
  1.673078294197E-16  1.083621047566E-16  6.984126255233E-17  4.479138908170E-17
  2.858240733454E-17  1.814673387612E-17  1.146217393855E-17  7.202406622439E-18
  4.501976045260E-18  2.799084421668E-18  1.730964246159E-18  1.064611370673E-18
  6.511727188332E-19  3.960719504378E-19  2.395492810799E-19  1.440548476882E-19
  8.612741711469E-20  5.119200919188E-20  0.000000000000E+00  0.000000000000E+00
  0.000000000000E+00  0.000000000000E+00  0.000000000000E+00  0.000000000000E+00
  0.000000000000E+00  0.000000000000E+00  0.000000000000E+00  0.000000000000E+00
  0.000000000000E+00  0.000000000000E+00  0.000000000000E+00  0.000000000000E+00
  0.000000000000E+00  0.000000000000E+00  0.000000000000E+00  0.000000000000E+00
  0.000000000000E+00
</data>
</radfunc>
</valence-charge>
<pseudocore-charge matching-radius="0.838007164909"
 number-of-continuous-derivatives="4">
<annotation model-charge-form="Teter function with specified parameters" />
<radfunc>
<data npts="291">
  8.802671064428E+01  8.802168838069E+01  8.800667495598E+01  8.798162676936E+01
  8.794487134476E+01  8.789797081502E+01  8.783819342082E+01  8.776973859031E+01
  8.769276263357E+01  8.760298866433E+01  8.750178788788E+01  8.739177736639E+01
  8.725880634499E+01  8.711991192498E+01  8.698113963050E+01  8.682126825195E+01
  8.663713545999E+01  8.646256109923E+01  8.626626423843E+01  8.604559813943E+01
  8.579760869266E+01  8.557734361799E+01  8.533563502914E+01  8.507046256642E+01
  8.477962962708E+01  8.446075099956E+01  8.411124030585E+01  8.382732893521E+01
  8.352335240104E+01  8.319797212285E+01  8.284977244428E+01  8.247725813389E+01
  8.207885214892E+01  8.165289373955E+01  8.119763698391E+01  8.071124985720E+01
  8.019181395404E+01  7.963732499930E+01  7.924716373056E+01  7.883985748338E+01
  7.841475131885E+01  7.797117518721E+01  7.750844467215E+01  7.702586188993E+01
  7.652271655815E+01  7.599828725065E+01  7.545184285534E+01  7.488264425289E+01
  7.428994623524E+01  7.367299968329E+01  7.303105402435E+01  7.236335999015E+01
  7.166917269685E+01  7.094775506895E+01  7.019838162869E+01  6.942034267296E+01
  6.861294885863E+01  6.777553621694E+01  6.690747161588E+01  6.600815868804E+01
  6.507704423887E+01  6.411362514735E+01  6.311745576738E+01  6.208815583338E+01
  6.102541886841E+01  5.992902108608E+01  5.879883077025E+01  5.822104983731E+01
  5.763481810712E+01  5.704014945685E+01  5.643706543435E+01  5.582559559783E+01
  5.520577785976E+01  5.457765883455E+01  5.394129418919E+01  5.329674899618E+01
  5.264409808795E+01  5.198342641175E+01  5.131482938423E+01  5.063841324446E+01
  4.995429540443E+01  4.926260479572E+01  4.856348221104E+01  4.785708063928E+01
  4.714356559258E+01  4.642311542381E+01  4.569592163280E+01  4.496218915962E+01
  4.422213666293E+01  4.347599678146E+01  4.272401637673E+01  4.196645675463E+01
  4.120359386371E+01  4.043571846799E+01  3.966313629161E+01  3.888616813307E+01
  3.810514994640E+01  3.732043288657E+01  3.653238331653E+01  3.574138277321E+01
  3.494782788946E+01  3.415213026942E+01  3.335471631429E+01  3.255602699582E+01
  3.175651757469E+01  3.095665726095E+01  3.015692881402E+01  2.935782807950E+01
  2.855986346029E+01  2.776355531978E+01  2.696943531481E+01  2.617804565642E+01
  2.538993829666E+01  2.460567403980E+01  2.382582157696E+01  2.305095644295E+01
  2.228165989510E+01  2.151851771365E+01  2.076211892434E+01  2.001305444371E+01
  1.927191564867E+01  1.853929287207E+01  1.781577382696E+01  1.710194196250E+01
  1.639837475553E+01  1.570564194215E+01  1.502430369488E+01  1.435490875118E+01
  1.369799250040E+01  1.305407503676E+01  1.242365918686E+01  1.180722852112E+01
  1.120524535926E+01  1.061814878082E+01  1.004635265243E+01  9.490243684556E+00
  8.950179530680E+00  8.426486943047E+00  7.919459999347E+00  7.429358415353E+00
  6.956405958890E+00  6.500788980800E+00  6.062655078743E+00  5.642111909658E+00
  5.239226166577E+00  4.854022735151E+00  4.486484044736E+00  4.136549628184E+00
  3.804115903524E+00  3.489036189608E+00  3.191120966393E+00  2.910138388912E+00
  2.645815062168E+00  2.397837082071E+00  2.165851345255E+00  1.949467128081E+00
  1.748257932407E+00  1.561763592832E+00  1.389492637027E+00  1.230924887643E+00
  1.085514290998E+00  9.526919544758E-01  8.318693712707E-01  7.224418079173E-01
  6.237918269256E-01  5.352929139523E-01  4.563131762727E-01  3.862190769798E-01
  3.243791673849E-01  2.701677785956E-01  2.229686322682E-01  1.821783301275E-01
  1.472096820829E-01  1.174948336751E-01  9.248815521063E-02  7.166885729593E-02
  5.454330057595E-02  4.064697130450E-02  2.954609889686E-02  2.083889678651E-02
  1.415641366124E-02  9.162988395515E-03  5.556308615585E-03  3.067079699025E-03
  1.458317972609E-03  5.242887668110E-04  8.911663647945E-05  5.101282387912E-06
  1.507783232565E-04  4.287688923000E-04  7.634658974089E-04  1.098607538425E-03
  1.394790192409E-03  1.626972963984E-03  1.782024996719E-03  1.856364041130E-03
  1.853730811322E-03  1.783138422925E-03  1.657029828862E-03  1.489668846089E-03
  1.295782331624E-03  1.089462595750E-03  8.833305405079E-04  6.879516081331E-04
  5.114887475683E-04  3.595695783983E-04  2.353390447744E-04  1.396643585527E-04
  7.145612391970E-05  2.806833597028E-05  5.740490836167E-06  4.728313693922E-08
  6.325154266437E-06  2.005006100377E-05  3.714694856600E-05  5.421816319391E-05
  6.868501257568E-05  7.884344733513E-05  8.384097485719E-05  8.358705075000E-05
  7.861301594448E-05  6.989994623983E-05  5.869345719217E-05  4.632358646613E-05
  3.404550983624E-05  2.291330392887E-05  1.369461241571E-05  6.829332250533E-06
  2.430769913210E-06  3.235668333555E-07  1.094424531183E-07  1.249739531966E-06
  3.153037655172E-06  5.256738946441E-06  7.093386339870E-06  8.335275348983E-06
  8.814285965301E-06  8.517352673336E-06  7.561161791126E-06  6.152121206950E-06
  4.539095790062E-06  2.966693256753E-06  1.636035996510E-06  6.781439620220E-07
  1.426000676895E-07  0.000000000000E+00  0.000000000000E+00  0.000000000000E+00
  0.000000000000E+00  0.000000000000E+00  0.000000000000E+00  0.000000000000E+00
  0.000000000000E+00  0.000000000000E+00  0.000000000000E+00  0.000000000000E+00
  0.000000000000E+00  0.000000000000E+00  0.000000000000E+00  0.000000000000E+00
  0.000000000000E+00  0.000000000000E+00  0.000000000000E+00  0.000000000000E+00
  0.000000000000E+00  0.000000000000E+00  0.000000000000E+00  0.000000000000E+00
  0.000000000000E+00  0.000000000000E+00  0.000000000000E+00  0.000000000000E+00
  0.000000000000E+00  0.000000000000E+00  0.000000000000E+00  0.000000000000E+00
  0.000000000000E+00  0.000000000000E+00  0.000000000000E+00  0.000000000000E+00
  0.000000000000E+00  0.000000000000E+00  0.000000000000E+00  0.000000000000E+00
  0.000000000000E+00  0.000000000000E+00  0.000000000000E+00  0.000000000000E+00
  0.000000000000E+00  0.000000000000E+00  0.000000000000E+00
</data>
</radfunc>
</pseudocore-charge>
<semilocal-potentials set="scalar_relativistic">
<slps n="5" l="s" rc="1.81962143684" eref="-0.471526617847">
<radfunc>
<data npts="291">
  2.780791267514E+01  2.779045503793E+01  2.773833924350E+01  2.765162840860E+01
  2.752492688014E+01  2.736417437289E+01  2.716076843133E+01  2.692985244061E+01
  2.667272995725E+01  2.637619949243E+01  2.604616416267E+01  2.569239596245E+01
  2.527158871352E+01  2.483978755458E+01  2.441607268037E+01  2.393722577222E+01
  2.339767132769E+01  2.289757765617E+01  2.234812783237E+01  2.174616481775E+01
  2.108872618413E+01  2.052103188343E+01  1.991494970240E+01  1.926952407150E+01
  1.858406293489E+01  1.785818565245E+01  1.709187119406E+01  1.649081381734E+01
  1.586754517671E+01  1.522254438982E+01  1.455645091270E+01  1.387007134619E+01
  1.316438450739E+01  1.244054450637E+01  1.169988159629E+01  1.094390060476E+01
  1.017427680488E+01  9.392849144665E+00  8.866317964146E+00  8.336049821019E+00
  7.802697262447E+00  7.266937055766E+00  6.729467935468E+00  6.191008176611E+00
  5.652293014085E+00  5.114071929178E+00  4.577105826540E+00  4.042164125852E+00
  3.510021793247E+00  2.981456337777E+00  2.457244797889E+00  1.938160742075E+00
  1.424971306466E+00  9.184342902762E-01  4.192953276069E-01 -7.171484866306E-02
 -5.538830384388E-01 -1.026516092502E+00 -1.488943312078E+00 -1.940518728895E+00
 -2.380623268973E+00 -2.808666807684E+00 -3.224090127914E+00 -3.626366797401E+00
 -4.015004985377E+00 -4.389549242425E+00 -4.749582270963E+00 -4.924037541102E+00
 -5.094726716697E+00 -5.261609172222E+00 -5.424647013793E+00 -5.583805142202E+00
 -5.739051318139E+00 -5.890356229899E+00 -6.037693563815E+00 -6.181040077701E+00
 -6.320375677514E+00 -6.455683497508E+00 -6.586949984045E+00 -6.714164983282E+00
 -6.837321832887E+00 -6.956417457893E+00 -7.071452470814E+00 -7.182431276032E+00
 -7.289362178479E+00 -7.392257496539E+00 -7.491133679042E+00 -7.586011426140E+00
 -7.676915813785E+00 -7.763876421395E+00 -7.846927462210E+00 -7.926107915706E+00
 -8.001461661257E+00 -8.073037612128E+00 -8.140889848621E+00 -8.205077749098E+00
 -8.265666117192E+00 -8.322725303604E+00 -8.376331320151E+00 -8.426565943935E+00
 -8.473516808860E+00 -8.517277481603E+00 -8.557947518788E+00 -8.595632501828E+00
 -8.630444045659E+00 -8.662499777298E+00 -8.691923280030E+00 -8.718843998820E+00
 -8.743397102545E+00 -8.765723298604E+00 -8.785968595618E+00 -8.804284010129E+00
 -8.820825213549E+00 -8.835752116078E+00 -8.849228384865E+00 -8.861420894394E+00
 -8.872499107882E+00 -8.882634389347E+00 -8.891999247022E+00 -8.900766509820E+00
 -8.909108439597E+00 -8.917195783148E+00 -8.925196768867E+00 -8.933276054142E+00
 -8.941593630524E+00 -8.950303694669E+00 -8.959553493902E+00 -8.969482155967E+00
 -8.980219513192E+00 -8.991884931733E+00 -9.004586156962E+00 -9.018418186212E+00
 -9.033462180214E+00 -9.049784424425E+00 -9.067435351264E+00 -9.086448633960E+00
 -9.106840362274E+00 -9.128608309957E+00 -9.151731303292E+00 -9.176168699761E+00
 -9.201859985601E+00 -9.228724501006E+00 -9.256661302139E+00 -9.285549169791E+00
 -9.315246775847E+00 -9.345593020455E+00 -9.376407555095E+00 -9.407491509342E+00
 -9.438628441807E+00 -9.469585538074E+00 -9.500115079726E+00 -9.529956208091E+00
 -9.558837003074E+00 -9.586476890522E+00 -9.612589380125E+00 -9.636885119305E+00