<?xml version="1.0" encoding="UTF-8" ?>
<psml version="1.1" energy_unit="hartree" length_unit="bohr"
 uuid="a36a5650-be6c-11e7-473a-8d3df5ed0b5d"
 xmlns="http://esl.cecam.org/PSML/ns/1.1">
<provenance creator="ONCVPSP-3.3.0+psml-3.3.0-73 (scalar-relativistic)"
 date="2017-10-31">
<annotation action="semilocal-pseudopotential-generation"
 action-cont="projectors-generation" />
<input-file name="oncvpsp-input">
<![CDATA[# atsym z nc nv iexc psfile
Sb 51 6 5 4 upf
# n l f
1 0 2.0
2 0 2.0
2 1 6.0
3 0 2.0
3 1 6.0
3 2 10.0
4 0 2.0
4 1 6.0
4 2 10.0
5 0 2.0
5 1 3.0
# lmax
2
# l rc ep ncon nbas qcut
0 1.3 0.0 4 8 9.4
1 1.3 0.0 4 8 9.6
2 1.5 0.0 4 8 10.0
# lloc lpopt rc5 dvloc0
4 5 1.3 0.0
# l nproj debl
0 2 1.0
1 2 3.0
2 2 1.6
# icmod fcfact rcfact
3 5.0 1.5
# epsh1 epsh2 depsh
-12.0 12.0 0.02
# rlmax drl
6.0 0.01
 0
]]>
</input-file>
</provenance>
<pseudo-atom-spec atomic-label="Sb" atomic-number="51" z-pseudo="23"
 flavor="Hamann&apos;s oncvpsp" relativity="scalar" spin-dft="no"
 core-corrections="yes">
<annotation pseudo-energy="-240.761079100" />
<exchange-correlation>
<annotation oncvpsp-xc-code="4" oncvpsp-xc-type="GGA -- Perdew-Burke-Ernzerhof" />
<libxc-info number-of-functionals="2">
<functional name="Perdew, Burke &amp; Ernzerhof (GGA)" type="exchange" id="101" />
<functional name="Perdew, Burke &amp; Ernzerhof (GGA)" type="correlation"
 id="130" />
</libxc-info>
</exchange-correlation>
<valence-configuration total-valence-charge="23">
<shell n="4" l="s" occupation="2" />
<shell n="4" l="p" occupation="6" />
<shell n="4" l="d" occupation="10" />
<shell n="5" l="s" occupation="2" />
<shell n="5" l="p" occupation="3" />
</valence-configuration>
</pseudo-atom-spec>
<grid npts="457">
<annotation type="sampled from oncvpsp log grid"
 recipe="r(i:1..N) = r1*exp(a*(i-1)) + r=0; resampled"
 recipe-cont="r1: scale; a: step" scale="0.980392156863E-05"
 step="0.119285708653E-01" delta="0.500000000000E-02" rmax="43.9721684583" />
<grid-data>
  0.000000000000E+00  5.021204018428E-03  1.002946097687E-02  1.504579076758E-02
  2.027345795207E-02  2.543065629312E-02  3.077838077958E-02  3.594118822007E-02
  4.098057695047E-02  4.617247910357E-02  5.140528910190E-02  5.655251270478E-02
  6.221512900910E-02  6.763314664665E-02  7.265117934131E-02  7.804152433212E-02
  8.383180528246E-02  8.898388872515E-02  9.445260573801E-02  1.002574157919E-01
  1.064189742860E-01  1.116197688201E-01  1.170747310341E-01  1.227962823396E-01
  1.287974511941E-01  1.350919027679E-01  1.416939700613E-01  1.468564096257E-01
  1.522069361091E-01  1.577524022190E-01  1.634999103328E-01  1.694568215939E-01
  1.756307653396E-01  1.820296488724E-01  1.886616675873E-01  1.955353154683E-01
  2.026593959664E-01  2.100430332757E-01  2.151143122711E-01  2.203080322266E-01
  2.256271493567E-01  2.310746912507E-01  2.366537585963E-01  2.423675269438E-01
  2.482192485144E-01  2.542122540505E-01  2.603499547123E-01  2.666358440189E-01
  2.730734998369E-01  2.796665864169E-01  2.864188564794E-01  2.933341533502E-01
  3.004164131487E-01  3.076696670278E-01  3.150980434685E-01  3.227057706300E-01
  3.304971787561E-01  3.384767026400E-01  3.466488841485E-01  3.550183748074E-01
  3.635899384487E-01  3.723684539226E-01  3.813589178741E-01  3.905664475873E-01
  3.999962838978E-01  4.096537941763E-01  4.195444753829E-01  4.245790090875E-01
  4.296739571965E-01  4.348300446829E-01  4.400480052191E-01  4.453285812817E-01
  4.506725242571E-01  4.560805945481E-01  4.615535616827E-01  4.670922044229E-01
  4.726973108760E-01  4.783696786065E-01  4.841101147498E-01  4.899194361268E-01
  4.957984693603E-01  5.017480509926E-01  5.077690276045E-01  5.138622559358E-01
  5.200286030070E-01  5.262689462431E-01  5.325841735980E-01  5.389751836812E-01
  5.454428858854E-01  5.519882005160E-01  5.586120589222E-01  5.653154036293E-01
  5.720991884728E-01  5.789643787345E-01  5.859119512793E-01  5.929428946946E-01
  6.000582094310E-01  6.072589079442E-01  6.145460148395E-01  6.219205670176E-01
  6.293836138218E-01  6.369362171876E-01  6.445794517939E-01  6.523144052154E-01
  6.601421780780E-01  6.680638842149E-01  6.760806508255E-01  6.841936186354E-01
  6.924039420590E-01  7.007127893637E-01  7.091213428361E-01  7.176307989501E-01
  7.262423685375E-01  7.349572769600E-01  7.437767642835E-01  7.527020854549E-01
  7.617345104804E-01  7.708753246061E-01  7.801258285014E-01  7.894873384434E-01
  7.989611865048E-01  8.085487207428E-01  8.182513053917E-01  8.280703210564E-01
  8.380071649091E-01  8.480632508880E-01  8.582400098987E-01  8.685388900175E-01
  8.789613566977E-01  8.895088929780E-01  9.001829996938E-01  9.109851956901E-01
  9.219170180384E-01  9.329800222548E-01  9.441757825219E-01  9.555058919122E-01
  9.669719626151E-01  9.785756261665E-01  9.903185336805E-01  1.002202356085E+00
  1.014228784358E+00  1.026399529770E+00  1.038716324127E+00  1.051180920017E+00
  1.063795091057E+00  1.076560632150E+00  1.089479359735E+00  1.102553112052E+00
  1.115783749397E+00  1.129173154390E+00  1.142723232242E+00  1.156435911029E+00
  1.170313141962E+00  1.184356899665E+00  1.198569182461E+00  1.212952012651E+00
  1.227507436802E+00  1.242237526044E+00  1.257144376357E+00  1.272230108873E+00
  1.287496870179E+00  1.302946832621E+00  1.318582194613E+00  1.334405180948E+00
  1.350418043120E+00  1.366623059637E+00  1.383022536353E+00  1.399618806789E+00
  1.416414232470E+00  1.433411203260E+00  1.450612137699E+00  1.468019483352E+00
  1.485635717152E+00  1.503463345758E+00  1.521504905907E+00  1.539762964778E+00
  1.558240120355E+00  1.576939001799E+00  1.595862269821E+00  1.615012617059E+00
  1.634392768463E+00  1.654005481685E+00  1.673853547465E+00  1.693939790035E+00
  1.714267067515E+00  1.734838272325E+00  1.755656331593E+00  1.776724207572E+00
  1.798044898063E+00  1.819621436840E+00  1.841456894082E+00  1.863554376811E+00
  1.885917029333E+00  1.908548033685E+00  1.931450610089E+00  1.954628017410E+00
  1.978083553619E+00  2.001820556262E+00  2.025842402938E+00  2.050152511773E+00
  2.074754341914E+00  2.099651394017E+00  2.124847210745E+00  2.150345377274E+00
  2.176149521801E+00  2.202263316063E+00  2.228690475856E+00  2.255434761566E+00
  2.282499978705E+00  2.309889978449E+00  2.337608658191E+00  2.365659962089E+00
  2.394047881634E+00  2.422776456214E+00  2.451849773688E+00  2.481271970973E+00
  2.511047234624E+00  2.541179801440E+00  2.571673959057E+00  2.602534046566E+00
  2.633764455124E+00  2.665369628586E+00  2.697354064129E+00  2.729722312899E+00
  2.762478980653E+00  2.795628728421E+00  2.829176273162E+00  2.863126388440E+00
  2.897483905101E+00  2.932253711963E+00  2.967440756506E+00  3.003050045584E+00
  3.039086646131E+00  3.075555685885E+00  3.112462354115E+00  3.149811902365E+00
  3.187609645193E+00  3.225860960936E+00  3.264571292467E+00  3.303746147976E+00
  3.343391101752E+00  3.383511794973E+00  3.424113936513E+00  3.465203303751E+00
  3.506785743396E+00  3.548867172317E+00  3.591453578385E+00  3.634551021325E+00
  3.678165633581E+00  3.722303621184E+00  3.766971264638E+00  3.812174919814E+00
  3.857921018852E+00  3.904216071078E+00  3.951066663931E+00  3.998479463898E+00
  4.046461217465E+00  4.095018752074E+00  4.144158977099E+00  4.193888884824E+00
  4.244215551442E+00  4.295146138060E+00  4.346687891716E+00  4.398848146417E+00
  4.451634324174E+00  4.505053936064E+00  4.559114583297E+00  4.613823958296E+00
  4.669189845796E+00  4.725220123945E+00  4.781922765433E+00  4.839305838618E+00
  4.897377508681E+00  4.956146038786E+00  5.015619791251E+00  5.075807228746E+00
  5.136716915491E+00  5.198357518477E+00  5.260737808699E+00  5.323866662403E+00
  5.387753062352E+00  5.452406099100E+00  5.517834972289E+00  5.584048991957E+00
  5.651057579860E+00  5.718870270818E+00  5.787496714068E+00  5.856946674637E+00
  5.927230034733E+00  5.998356795150E+00  6.070337076691E+00  6.143181121612E+00
  6.216899295071E+00  6.291502086612E+00  6.367000111651E+00  6.443404112991E+00
  6.520724962347E+00  6.598973661895E+00  6.678161345838E+00  6.758299281988E+00
  6.839398873372E+00  6.921471659852E+00  7.004529319770E+00  7.088583671608E+00
  7.173646675667E+00  7.259730435775E+00  7.346847201004E+00  7.435009367416E+00
  7.524229479825E+00  7.614520233583E+00  7.705894476386E+00  7.798365210103E+00
  7.891945592624E+00  7.986648939736E+00  8.082488727012E+00  8.179478591737E+00
  8.277632334837E+00  8.376963922855E+00  8.477487489930E+00  8.579217339809E+00
  8.682167947887E+00  8.786353963261E+00  8.891790210820E+00  8.998491693350E+00
  9.106473593670E+00  9.215751276794E+00  9.326340292116E+00  9.438256375621E+00
  9.551515452129E+00  9.666133637554E+00  9.782127241205E+00  9.899512768099E+00
  1.001830692132E+01  1.013852660437E+01  1.026018892362E+01  1.038331119071E+01
  1.050791092500E+01  1.063400585610E+01  1.076161392637E+01  1.089075329349E+01
  1.102144233301E+01  1.115369964100E+01  1.128754403670E+01  1.142299456514E+01
  1.156007049992E+01  1.169879134592E+01  1.183917684207E+01  1.198124696417E+01
  1.212502192774E+01  1.227052219088E+01  1.241776845717E+01  1.256678167865E+01
  1.271758305880E+01  1.287019405550E+01  1.302463638417E+01  1.318093202078E+01
  1.333910320503E+01  1.349917244349E+01  1.366116251281E+01  1.382509646296E+01
  1.399099762052E+01  1.415888959197E+01  1.432879626707E+01  1.450074182227E+01
  1.467475072414E+01  1.485084773283E+01  1.502905790562E+01  1.520940660049E+01
  1.539191947970E+01  1.557662251345E+01  1.576354198362E+01  1.595270448742E+01
  1.614413694127E+01  1.633786658456E+01  1.653392098358E+01  1.673232803538E+01
  1.693311597181E+01  1.713631336347E+01  1.734194912383E+01  1.755005251332E+01
  1.776065314347E+01  1.797378098120E+01  1.818946635297E+01  1.840773994921E+01
  1.862863282860E+01  1.885217642254E+01  1.907840253961E+01  1.930734337009E+01
  1.953903149053E+01  1.977349986841E+01  2.001078186683E+01  2.025091124924E+01
  2.049392218423E+01  2.073984925044E+01  2.098872744144E+01  2.124059217074E+01
  2.149547927679E+01  2.175342502811E+01  2.201446612845E+01  2.227863972199E+01
  2.254598339865E+01  2.281653519944E+01  2.309033362183E+01  2.336741762529E+01
  2.364782663680E+01  2.393160055644E+01  2.421877976311E+01  2.450940512027E+01
  2.480351798172E+01  2.510116019750E+01  2.540237411987E+01  2.570720260930E+01
  2.601568904062E+01  2.632787730910E+01  2.664381183681E+01  2.696353757885E+01
  2.728710002980E+01  2.761454523016E+01  2.794591977292E+01  2.828127081020E+01
  2.862064605992E+01  2.896409381264E+01  2.931166293839E+01  2.966340289365E+01
  3.001936372837E+01  3.037959609311E+01  3.074415124623E+01  3.111308106119E+01
  3.148643803392E+01  3.186427529033E+01  3.224664659381E+01  3.263360635294E+01
  3.302520962917E+01  3.342151214472E+01  3.382257029046E+01  3.422844113394E+01
  3.463918242755E+01  3.505485261668E+01  3.547551084808E+01  3.590121697826E+01
  3.633203158200E+01  3.676801596098E+01  3.720923215251E+01  3.765574293834E+01
  3.810761185360E+01  3.856490319585E+01  3.902768203420E+01  3.949601421861E+01
  3.996996638923E+01  4.044960598590E+01  4.093500125773E+01  4.142622127283E+01
  4.192333592810E+01  4.242641595924E+01  4.293553295075E+01  4.345075934616E+01
  4.397216845831E+01
</grid-data>
</grid>
<valence-charge total-charge="23" is-unscreening-charge="yes"
 rescaled-to-z-pseudo="no">
<radfunc>
<data npts="457">
  7.311963589973E+00  7.317427973841E+00  7.333765082410E+00  7.361028504562E+00
  7.401049943495E+00  7.452144454383E+00  7.517310133522E+00  7.591993957964E+00
  7.676048317824E+00  7.774175612916E+00  7.884918198720E+00  8.005449874444E+00
  8.151341774929E+00  8.303967055924E+00  8.456693136439E+00  8.632925493240E+00
  8.836272998165E+00  9.029422663379E+00  9.247011721258E+00  9.492111481375E+00
  9.768168813464E+00  1.001388537054E+01  1.028406686674E+01  1.058110483399E+01
  1.090760906881E+01  1.126642233858E+01  1.166063429072E+01  1.198152815991E+01
  1.232572379558E+01  1.269481975860E+01  1.309050203300E+01  1.351454348481E+01
  1.396880179885E+01  1.445521549616E+01  1.497579755956E+01  1.553262610898E+01
  1.612783147242E+01  1.676357889247E+01  1.721100955276E+01  1.767806962671E+01
  1.816539401537E+01  1.867360466972E+01  1.920330451691E+01  1.975507051420E+01
  2.032944574657E+01  2.092693048128E+01  2.154797209126E+01  2.219295375893E+01
  2.286218187411E+01  2.355587204400E+01  2.427413364043E+01  2.501695282088E+01
  2.578417397466E+01  2.657547956651E+01  2.739036837607E+01  2.822813216493E+01
  2.908783084402E+01  2.996826626393E+01  3.086795480959E+01  3.178509905063E+01
  3.271755877882E+01  3.366282185580E+01  3.461797539720E+01  3.557967793281E+01
  3.654413330610E+01  3.750706720771E+01  3.846370737411E+01  3.893803601191E+01
  3.940876862081E+01  3.987516295610E+01  4.033644401388E+01  4.079180419238E+01
  4.124040360794E+01  4.168137057810E+01  4.211380228510E+01  4.253676563248E+01
  4.294929830812E+01  4.335041006624E+01  4.373908424116E+01  4.411427950489E+01
  4.447493188004E+01  4.481995701885E+01  4.514825275817E+01  4.545870195905E+01
  4.575017563809E+01  4.602153639630E+01  4.627164214930E+01  4.649935016033E+01
  4.670352137573E+01  4.688302505929E+01  4.703674371952E+01  4.716357832056E+01
  4.726245376395E+01  4.733232462506E+01  4.737218112424E+01  4.738105530827E+01
  4.735802741415E+01  4.730223238232E+01  4.721286648255E+01  4.708919401079E+01
  4.693055401130E+01  4.673636697364E+01  4.650614145015E+01  4.623948053549E+01
  4.593608814618E+01  4.559577503463E+01  4.521846446972E+01  4.480419751338E+01
  4.435313782134E+01  4.386557589543E+01  4.334193271488E+01  4.278276267496E+01
  4.218875576381E+01  4.156073891100E+01  4.089967644612E+01  4.020666961100E+01
  3.948295507607E+01  3.872990241945E+01  3.794901053647E+01  3.714190295787E+01
  3.631032206640E+01  3.545612221411E+01  3.458126175594E+01  3.368779402933E+01
  3.277785732438E+01  3.185366390354E+01  3.091748814518E+01  2.997165389987E+01
  2.901852116228E+01  2.806047217533E+01  2.709989709482E+01  2.613917935428E+01
  2.518068087817E+01  2.422672729901E+01  2.327959333874E+01  2.234148851678E+01
  2.141454334718E+01  2.050079618418E+01  1.960218086970E+01  1.872051532778E+01
  1.785749123997E+01  1.701466492186E+01  1.619344950525E+01  1.539510851256E+01
  1.462075089091E+01  1.387132755251E+01  1.314762944705E+01  1.245028717026E+01
  1.177977209141E+01  1.113639896216E+01  1.052032994959E+01  9.931580018474E+00
  9.370023571307E+00  8.835402240964E+00  8.327333718590E+00  7.845321489884E+00
  7.388765345557E+00  6.956972526583E+00  6.549169361748E+00  6.164513253704E+00
  5.802104869966E+00  5.461000396856E+00  5.140224987981E+00  4.838790739743E+00
  4.555716202599E+00  4.290033607777E+00  4.040795822201E+00  3.807082054654E+00
  3.588002802351E+00  3.382703810248E+00  3.190369043319E+00  3.010222649841E+00
  2.841529915908E+00  2.683597231844E+00  2.535770244596E+00  2.397428021118E+00
  2.267975827350E+00  2.146845487035E+00  2.033495358635E+00  1.927410272158E+00
  1.828101321168E+00  1.735105526586E+00  1.647985388143E+00  1.566328338478E+00
  1.489746113948E+00  1.417874055244E+00  1.350370349868E+00  1.286915227512E+00
  1.227210118384E+00  1.170976783529E+00  1.117956425304E+00  1.067908785312E+00
  1.020611236326E+00  9.758578740513E-01  9.334586139308E-01  8.932382976643E-01
  8.550358135819E-01  8.187032345534E-01  7.841049766802E-01  7.511169815979E-01
  7.196259248253E-01  6.895284522115E-01  6.607304461646E-01  6.331463229932E-01
  6.066983623547E-01  5.813160694872E-01  5.569355706095E-01  5.334990416010E-01
  5.109541698337E-01  4.892536488064E-01  4.683547050474E-01  4.482186565821E-01
  4.288105021274E-01  4.100985400571E-01  3.920540160893E-01  3.746507985716E-01
  3.578650801856E-01  3.416751048481E-01  3.260609185619E-01  3.110041429529E-01
  2.964877702269E-01  2.824959782840E-01  2.690139647418E-01  2.560277986383E-01
  2.435242886112E-01  2.314908663890E-01  2.199154844192E-01  2.087865266062E-01
  1.980927310313E-01  1.878231236736E-01  1.779669621570E-01  1.685136886005E-01
  1.594528906972E-01  1.507742701951E-01  1.424676180029E-01  1.345227951884E-01
  1.269297191910E-01  1.196783546098E-01  1.127587079829E-01  1.061608260109E-01
  9.987479672758E-02  9.389075316012E-02  8.819887906065E-02  8.278941633260E-02
  7.765267380880E-02  7.277903707427E-02  6.815897905652E-02  6.378307114763E-02
  5.964199461787E-02  5.572655215255E-02  5.202767932914E-02  4.853645588904E-02
  4.524411667449E-02  4.214206211830E-02  3.922186819020E-02  3.647529571752E-02
  3.389429901129E-02  3.147103374078E-02  2.919786401078E-02  2.706736860639E-02
  2.507234637994E-02  2.320582076403E-02  2.146104340359E-02  1.983149690827E-02
  1.831089673438E-02  1.689319221312E-02  1.557256674901E-02  1.434343721827E-02
  1.320045260335E-02  1.213849190433E-02  1.115266137248E-02  1.023829111496E-02
  9.390931122254E-03  8.606346772095E-03  7.880513865070E-03  7.209613247398E-03
  6.590025076495E-03  6.018322784096E-03  5.491266790405E-03  5.005798020928E-03
  4.559031275384E-03  4.148248495478E-03  3.770891975381E-03  3.424557555655E-03
  3.106987838030E-03  2.816065455041E-03  2.549806425084E-03  2.306353619982E-03
  2.083970368748E-03  1.881034217888E-03  1.696030865376E-03  1.527548282347E-03
  1.374271033640E-03  1.234974805602E-03  1.108521147039E-03  9.938524268712E-04
  8.899870100038E-04  7.960146510362E-04  7.110921038284E-04  6.344389435559E-04
  5.653335967180E-04  5.031095736239E-04  4.471518971406E-04  3.968937209387E-04
  3.518131301013E-04  3.114301167341E-04  2.753037231334E-04  2.430293450881E-04
  2.142361880099E-04  1.885848687706E-04  1.657651563639E-04  1.454938447821E-04
  1.275127517925E-04  1.115868375963E-04  9.750243765386E-05  8.506560424561E-05
  7.410055160799E-05  6.444819973646E-05  5.596481217385E-05  4.852072330918E-05
  4.199915089507E-05  3.629508965543E-05  3.131428199976E-05  2.697226198990E-05
  2.319346882142E-05  1.991042618852E-05  1.706298400044E-05  1.459761901186E-05
  1.246679102177E-05  1.062835138626E-05  9.045000682856E-06  7.683792457933E-06
  6.515680085271E-06  5.515103864088E-06  4.659615588098E-06  3.929537924168E-06
  3.307656049179E-06  2.778939106572E-06  2.330289159160E-06  1.950315431470E-06
  1.629131752478E-06  1.358175227409E-06  1.130044284512E-06  9.383543587481E-07
  7.776095884557E-07  6.430890126476E-07  5.307458651358E-07  4.371186666484E-07
  3.592529171022E-07  2.946322868776E-07  2.411182980384E-07  1.968975737467E-07
  1.604358165163E-07  1.304377533446E-07  1.058123581623E-07  8.564272946610E-08
  6.916006354631E-08  5.572122149507E-08  4.478944135124E-08  3.591779546900E-08
  2.873503770070E-08  2.293352547173E-08  1.825893852596E-08  1.450154926943E-08
  1.148882947471E-08  9.079204867071E-09  7.156793030129E-09  5.626981372286E-09
  4.412720807255E-09  3.451427534305E-09  2.692400058998E-09  2.094671563110E-09
  1.625229092673E-09  1.257540952019E-09  9.703423240392E-10  7.466366250789E-10
  5.728765773492E-10  4.382945616811E-10  3.343566066908E-10  2.543184746029E-10
  1.928658066619E-10  1.458232706782E-10  1.099201796239E-10  8.260218523378E-11
  6.188044896390E-11  4.621120247570E-11  3.439987315597E-11  2.552500374903E-11
  1.887807085709E-11  1.391603242924E-11  1.022403317001E-11  7.486189440995E-12
  5.462779129681E-12  3.972491952523E-12  2.878664324270E-12  2.078640887431E-12
  1.495580993649E-12  1.072170353189E-12  7.658119721559E-13  5.449615772175E-13
  3.863452887868E-13  2.728548955781E-13  1.919616222169E-13  1.345251527500E-13
  9.390282029644E-14  6.528587405082E-14  4.520686412161E-14  3.117546815857E-14
  2.141034356827E-14  1.464248150890E-14  9.971585233193E-15  6.761608326296E-15
  4.565093055885E-15  3.068600433372E-15  2.053520851683E-15  1.368052185215E-15
  9.072508915248E-16  5.988933164047E-16  3.934999674262E-16  2.573289522879E-16
  1.674775385577E-16  1.084734367460E-16  6.991394071276E-17  4.483859880622E-17
  2.861291975530E-17  1.816635451481E-17  1.147472598133E-17  7.210394911724E-18
  4.507033174927E-18  2.802268895927E-18  1.732958712877E-18  1.065853717625E-18
  6.519423050530E-19  3.965460184698E-19  2.398396587298E-19  1.442316932532E-19
  8.623449553949E-20  5.125646369150E-20  0.000000000000E+00  0.000000000000E+00
  0.000000000000E+00  0.000000000000E+00  0.000000000000E+00  0.000000000000E+00
  0.000000000000E+00  0.000000000000E+00  0.000000000000E+00  0.000000000000E+00
  0.000000000000E+00  0.000000000000E+00  0.000000000000E+00  0.000000000000E+00
  0.000000000000E+00  0.000000000000E+00  0.000000000000E+00  0.000000000000E+00
  0.000000000000E+00
</data>
</radfunc>
</valence-charge>
<pseudocore-charge matching-radius="0.520028603007"
 number-of-continuous-derivatives="4">
<annotation model-charge-form="Teter function with specified parameters" />
<radfunc>
<data npts="291">
  2.479848478241E+02  2.479523845841E+02  2.478553532041E+02  2.476935120786E+02
  2.474561293558E+02  2.471533996994E+02  2.467678373294E+02  2.463266964075E+02
  2.458311412645E+02  2.452538612835E+02  2.446039625730E+02  2.438985224706E+02
  2.430472858595E+02  2.421598090694E+02  2.412748261671E+02  2.402574124543E+02
  2.390884162731E+02  2.379828867355E+02  2.367430301065E+02  2.353533398045E+02
  2.337967377679E+02  2.324187390102E+02  2.309115454036E+02  2.292640071293E+02
  2.274642139246E+02  2.254994874832E+02  2.233563855095E+02  2.216234925531E+02
  2.197760484562E+02  2.178075931578E+02  2.157114737266E+02  2.134808679174E+02
  2.111088139213E+02  2.085882471594E+02  2.059120450288E+02  2.030730805662E+02
  2.000642860406E+02  1.968787275127E+02  1.946534922764E+02  1.923447901933E+02
  1.899507841381E+02  1.874697304836E+02  1.848999963459E+02  1.822400781979E+02
  1.794886218804E+02  1.766444440299E+02  1.737065549273E+02  1.706741827535E+02
  1.675467992222E+02  1.643241465315E+02  1.610062655538E+02  1.575935251508E+02
  1.540866524642E+02  1.504867639974E+02  1.467953972550E+02  1.430145426636E+02
  1.391466754404E+02  1.351947870233E+02  1.311624156114E+02  1.270536753047E+02
  1.228732832607E+02  1.186265842219E+02  1.143195716946E+02  1.099589049973E+02
  1.055519213289E+02  1.011066419539E+02  9.663177155048E+01  9.438614488620E+01
  9.213668973233E+01  8.988468116232E+01  8.763143373899E+01  8.537830042003E+01
  8.312667128696E+01  8.087797209044E+01  7.863366260520E+01  7.639523478838E+01
  7.416421073541E+01  7.194214042845E+01  6.973059927277E+01  6.753118541761E+01
  6.534551685875E+01  6.317522832105E+01  6.102196792042E+01  5.888739360595E+01
  5.677316938411E+01  5.468096132845E+01  5.261243338011E+01  5.056924294552E+01
  4.855303630012E+01  4.656544380837E+01  4.460807497257E+01  4.268251332489E+01
  4.079031117948E+01  3.893298426345E+01  3.711200624791E+01  3.532880320277E+01
  3.358474800092E+01  3.188115470026E+01  3.021927293385E+01  2.860028234114E+01
  2.702528707501E+01  2.549531042167E+01  2.401128957220E+01  2.257407058628E+01
  2.118440359006E+01  1.984293825125E+01  1.855021957558E+01  1.730668406910E+01
  1.611265631090E+01  1.496834598068E+01  1.387384538457E+01  1.282912752132E+01
  1.183404472926E+01  1.088832795152E+01  9.991586654390E+00  9.143309429458E+00
  8.342865306093E+00  7.589505795581E+00  6.882367682506E+00  6.220476572710E+00
  5.602751199817E+00  5.028008485410E+00  4.494969339055E+00  4.002265176496E+00
  3.548445125144E+00  3.131983876951E+00  2.751290139481E+00  2.404715626742E+00
  2.090564522211E+00  1.807103337728E+00  1.552571083585E+00  1.325189657541E+00
  1.123174353687E+00  9.447443864004E-01  7.881333201282E-01  6.515992926935E-01
  5.334349183895E-01  4.319767574155E-01  3.456142404136E-01  2.727979410496E-01
  2.120470958250E-01  1.619562786312E-01  1.212011479504E-01  8.854319698378E-02
  6.283345123018E-02  4.301507395879E-02  2.812485736492E-02  1.729359567584E-02
  9.745355714192E-03  4.795680023163E-03  1.848777152760E-03  3.937726111546E-04
  1.117864863331E-07  3.122223234572E-04  1.043557484549E-03  1.970153454153E-03
  2.923841918420E-03  3.785264203851E-03  4.476834499548E-03  4.955797042298E-03
  5.207515552183E-03  5.239122744936E-03  5.073643634367E-03  4.744688938642E-03
  4.291794725657E-03  3.756462116541E-03  3.178927169965E-03  2.595666842688E-03
  2.037623073367E-03  1.529104499256E-03  1.087305001351E-03  7.223610292768E-04
  4.378562172026E-04  2.316727438418E-04  9.708459396810E-05  2.398849792496E-05
  1.737612397837E-07  1.254209247816E-05  4.820228694845E-05  9.538139308105E-05
  1.441127574293E-04  1.866809635999E-04  2.178229399169E-04  2.347022184312E-04
  2.366883934226E-04  2.249853425206E-04  2.021590845461E-04  1.716189136654E-04
  1.371036754197E-04  1.022190987870E-04  7.006266680451E-05  4.296057666314E-05
  2.232809165055E-05  8.651304220689E-06  1.576275189316E-06  8.181063599484E-08
  2.705652337945E-06  7.791108456636E-06  1.372225052732E-05  1.912043821103E-05
  2.298239893658E-05  2.474936429927E-05  2.430663169767E-05  2.192211343555E-05
  1.813980440981E-05  1.364875590092E-05  9.149585012209E-06  5.238733055559E-06
  2.326034877342E-06  5.945058472540E-07  3.709857874522E-09  0.000000000000E+00
  0.000000000000E+00  0.000000000000E+00  0.000000000000E+00  0.000000000000E+00
  0.000000000000E+00  0.000000000000E+00  0.000000000000E+00  0.000000000000E+00
  0.000000000000E+00  0.000000000000E+00  0.000000000000E+00  0.000000000000E+00
  0.000000000000E+00  0.000000000000E+00  0.000000000000E+00  0.000000000000E+00
  0.000000000000E+00  0.000000000000E+00  0.000000000000E+00  0.000000000000E+00
  0.000000000000E+00  0.000000000000E+00  0.000000000000E+00  0.000000000000E+00
  0.000000000000E+00  0.000000000000E+00  0.000000000000E+00  0.000000000000E+00
  0.000000000000E+00  0.000000000000E+00  0.000000000000E+00  0.000000000000E+00
  0.000000000000E+00  0.000000000000E+00  0.000000000000E+00  0.000000000000E+00
  0.000000000000E+00  0.000000000000E+00  0.000000000000E+00  0.000000000000E+00
  0.000000000000E+00  0.000000000000E+00  0.000000000000E+00  0.000000000000E+00
  0.000000000000E+00  0.000000000000E+00  0.000000000000E+00  0.000000000000E+00
  0.000000000000E+00  0.000000000000E+00  0.000000000000E+00  0.000000000000E+00
  0.000000000000E+00  0.000000000000E+00  0.000000000000E+00  0.000000000000E+00
  0.000000000000E+00  0.000000000000E+00  0.000000000000E+00  0.000000000000E+00
  0.000000000000E+00  0.000000000000E+00  0.000000000000E+00  0.000000000000E+00
  0.000000000000E+00  0.000000000000E+00  0.000000000000E+00  0.000000000000E+00
  0.000000000000E+00  0.000000000000E+00  0.000000000000E+00  0.000000000000E+00
  0.000000000000E+00  0.000000000000E+00  0.000000000000E+00  0.000000000000E+00
  0.000000000000E+00  0.000000000000E+00  0.000000000000E+00
</data>
</radfunc>
</pseudocore-charge>
<semilocal-potentials set="scalar_relativistic">
<slps n="4" l="s" rc="1.30294683262" eref="-5.46955998950">
<radfunc>
<data npts="291">
 -2.261870497522E+01 -2.262040257526E+01 -2.262547572378E+01 -2.263393436767E+01
 -2.264633444409E+01 -2.266213637323E+01 -2.268224311889E+01 -2.270522228898E+01
 -2.273100291600E+01 -2.276099119594E+01 -2.279469527667E+01 -2.283121204356E+01
 -2.287518218566E+01 -2.292091534946E+01 -2.296640944710E+01 -2.301857522087E+01
 -2.307833362234E+01 -2.313467146836E+01 -2.319765133287E+01 -2.326798726249E+01
 -2.334645191527E+01 -2.341563289619E+01 -2.349099885112E+01 -2.357302357008E+01
 -2.366220093600E+01 -2.375904215817E+01 -2.386407200212E+01 -2.394853886900E+01
 -2.403813800442E+01 -2.413309453830E+01 -2.423363039457E+01 -2.433996181187E+01
 -2.445229649099E+01 -2.457083033842E+01 -2.469574377628E+01 -2.482719759019E+01
 -2.496532828970E+01 -2.511024295868E+01 -2.521065878472E+01 -2.531413394646E+01
 -2.542067081153E+01 -2.553026179170E+01 -2.564288836972E+01 -2.575852008015E+01
 -2.587711344518E+01 -2.599861086761E+01 -2.612293948334E+01 -2.625000997629E+01
 -2.637971535942E+01 -2.651192972614E+01 -2.664650697708E+01 -2.678327952788E+01
 -2.692205700453E+01 -2.706262493372E+01 -2.720474343618E+01 -2.734814593250E+01
 -2.749253787136E+01 -2.763759549154E+01 -2.778296463018E+01 -2.792825959075E+01
 -2.807306208579E+01 -2.821692027074E+01 -2.835934788657E+01 -2.849982353058E+01
 -2.863779007636E+01 -2.877265426543E+01 -2.890378649488E+01 -2.896774643327E+01
 -2.903052082691E+01 -2.909202079862E+01 -2.915215524762E+01 -2.921083087329E+01
 -2.926795220400E+01 -2.932342163117E+01 -2.937713944896E+01 -2.942900389968E+01
 -2.947891122522E+01 -2.952675572476E+01 -2.957242981900E+01 -2.961582412105E+01
 -2.965682751434E+01 -2.969532723769E+01 -2.973120897766E+01 -2.976435696857E+01
 -2.979465410016E+01 -2.982198203311E+01 -2.984622132264E+01 -2.986725155011E+01
 -2.988495146280E+01 -2.989919912197E+01 -2.990987205899E+01 -2.991684743970E+01
 -2.992000223684E+01 -2.991921341035E+01 -2.991435809544E+01 -2.990531379808E+01
 -2.989195859776E+01 -2.987417135683E+01 -2.985183193638E+01 -2.982482141776E+01
 -2.979302232932E+01 -2.975631887774E+01 -2.971459718308E+01 -2.966774551681E+01
 -2.961565454190E+01 -2.955821755414E+01 -2.949533072359E+01 -2.942689333521E+01
 -2.935280802771E+01 -2.927298102955E+01 -2.918732239121E+01 -2.909574621284E+01
 -2.899817086653E+01 -2.889451921264E+01 -2.878471880988E+01 -2.866870211900E+01
 -2.854640670033E+01 -2.841777540608E+01 -2.828275656846E+01 -2.814130418501E+01
 -2.799337810526E+01 -2.783894421952E+01 -2.767797465682E+01 -2.751044799562E+01
 -2.733634949489E+01 -2.715567135353E+01 -2.696841300801E+01 -2.677458148005E+01
 -2.657419178820E+01 -2.636726743951E+01 -2.615384102044E+01 -2.593395490875E+01
 -2.570766213166E+01 -2.547502739913E+01 -2.523612834493E+01 -2.499105701249E+01
 -2.473992162684E+01 -2.448284869876E+01 -2.421998551157E+01 -2.395150304592E+01
 -2.367759940174E+01 -2.339850378011E+01 -2.311448109017E+01 -2.282583724659E+01
 -2.253292522163E+01 -2.223615191043E+01 -2.193598585939E+01 -2.163296589231E+01
 -2.132771064815E+01 -2.102092901473E+01 -2.071343140468E+01 -2.040614177110E+01