<?xml version="1.0" encoding="UTF-8" ?>
<psml version="1.1" energy_unit="hartree" length_unit="bohr"
 uuid="2efe7b60-be45-11e7-5ac0-e29c463f18a9"
 xmlns="http://esl.cecam.org/PSML/ns/1.1">
<provenance creator="ONCVPSP-3.3.0+psml-3.3.0-73 (scalar-relativistic)"
 date="2017-10-31">
<annotation action="semilocal-pseudopotential-generation"
 action-cont="projectors-generation" />
<input-file name="oncvpsp-input">
<![CDATA[# atsym z nc nv iexc psfile
In 49 8 3 4 upf
# n l f
1 0 2.0
2 0 2.0
2 1 6.0
3 0 2.0
3 1 6.0
3 2 10.0
4 0 2.0
4 1 6.0
4 2 10.0
5 0 2.0
5 1 1.0
# lmax
2
# l rc ep ncon nbas qcut
0 2.1 0.0 5 8 2.8
1 2.35 0.0 5 8 2.8
2 1.85 0.0 4 7 8.2
# lloc lpopt rc5 dvloc0
4 5 1.7 0.0
# l nproj debl
0 2 1.1
1 2 3.0
2 2 1.5
# icmod fcfact
3 5 1.44
# epsh1 epsh2 depsh
-12.0 12.0 0.02
# rlmax drl
6.0 0.01
 0
]]>
</input-file>
</provenance>
<pseudo-atom-spec atomic-label="In" atomic-number="49" z-pseudo="13"
 flavor="Hamann&apos;s oncvpsp" relativity="scalar" spin-dft="no"
 core-corrections="yes">
<annotation pseudo-energy="-56.5719651917" />
<exchange-correlation>
<annotation oncvpsp-xc-code="4" oncvpsp-xc-type="GGA -- Perdew-Burke-Ernzerhof" />
<libxc-info number-of-functionals="2">
<functional name="Perdew, Burke &amp; Ernzerhof (GGA)" type="exchange" id="101" />
<functional name="Perdew, Burke &amp; Ernzerhof (GGA)" type="correlation"
 id="130" />
</libxc-info>
</exchange-correlation>
<valence-configuration total-valence-charge="13">
<shell n="4" l="d" occupation="10" />
<shell n="5" l="s" occupation="2" />
<shell n="5" l="p" occupation="1" />
</valence-configuration>
</pseudo-atom-spec>
<grid npts="457">
<annotation type="sampled from oncvpsp log grid"
 recipe="r(i:1..N) = r1*exp(a*(i-1)) + r=0; resampled"
 recipe-cont="r1: scale; a: step" scale="0.102040816327E-04"
 step="0.119285708653E-01" delta="0.500000000000E-02" rmax="44.1581064066" />
<grid-data>
  0.000000000000E+00  5.042436366198E-03  1.007187092528E-02  1.510941245291E-02
  2.011777176121E-02  2.523536637175E-02  3.054202401815E-02  3.566518465412E-02
  4.066587435065E-02  4.581790627188E-02  5.101053189425E-02  5.611822836574E-02
  6.173735967777E-02  6.711377067229E-02  7.295838755272E-02  7.837152581763E-02
  8.418629118611E-02  8.936016040508E-02  9.485200209104E-02  1.006813580000E-01
  1.068689708730E-01  1.120917571602E-01  1.175697858846E-01  1.233155309823E-01
  1.293420760023E-01  1.356631438985E-01  1.422931282787E-01  1.474773974107E-01
  1.528505487941E-01  1.584194641135E-01  1.641912757790E-01  1.701733760607E-01
  1.763734265569E-01  1.827993680065E-01  1.894594304590E-01  1.963621438154E-01
  2.035163487527E-01  2.109312080467E-01  2.160239311338E-01  2.212396129270E-01
  2.265812221416E-01  2.320517991689E-01  2.376544578081E-01  2.433923870374E-01
  2.492688528300E-01  2.552872000128E-01  2.614508541699E-01  2.677633235929E-01
  2.742282012778E-01  2.808491669694E-01  2.876299892567E-01  2.945745277173E-01
  3.016867351146E-01  3.089706596472E-01  3.164304472537E-01  3.240703439722E-01
  3.318946983570E-01  3.399079639542E-01  3.481147018359E-01  3.565195831970E-01
  3.651273920137E-01  3.739430277665E-01  3.829715082289E-01  3.922179723236E-01
  4.016876830473E-01  4.113860304668E-01  4.213185347864E-01  4.263743572039E-01
  4.314908494903E-01  4.366687396842E-01  4.419087645604E-01  4.472116697351E-01
  4.525782097720E-01  4.580091482892E-01  4.635052580687E-01  4.690673211655E-01
  4.746961290195E-01  4.803924825677E-01  4.861571923585E-01  4.919910786669E-01
  4.978949716109E-01  5.038697112702E-01  5.099161478054E-01  5.160351415791E-01
  5.222275632780E-01  5.284942940374E-01  5.348362255658E-01  5.412542602726E-01
  5.477493113959E-01  5.543223031326E-01  5.609741707702E-01  5.677058608195E-01
  5.745183311493E-01  5.814125511231E-01  5.883895017366E-01  5.954501757574E-01
  6.025955778665E-01  6.098267248009E-01  6.171446454985E-01  6.245503812445E-01
  6.320449858194E-01  6.396295256493E-01  6.473050799571E-01  6.550727409165E-01
  6.629336138075E-01  6.708888171732E-01  6.789394829793E-01  6.870867567751E-01
  6.953317978564E-01  7.036757794306E-01  7.121198887838E-01  7.206653274492E-01
  7.293133113786E-01  7.380650711151E-01  7.469218519685E-01  7.558849141921E-01
  7.649555331624E-01  7.741349995604E-01  7.834246195551E-01  7.928257149898E-01
  8.023396235697E-01  8.119676990525E-01  8.217113114411E-01  8.315718471784E-01
  8.415507093446E-01  8.516493178567E-01  8.618691096710E-01  8.722115389870E-01
  8.826780774549E-01  8.932702143843E-01  9.039894569569E-01  9.148373304404E-01
  9.258153784057E-01  9.369251629466E-01  9.481682649019E-01  9.595462840808E-01
  9.710608394897E-01  9.827135695636E-01  9.945061323984E-01  1.006440205987E+00
  1.018517488459E+00  1.030739698321E+00  1.043108574700E+00  1.055625877597E+00
  1.068293388128E+00  1.081112908785E+00  1.094086263691E+00  1.107215298855E+00
  1.120501882441E+00  1.133947905031E+00  1.147555279891E+00  1.161325943250E+00
  1.175261854569E+00  1.189364996824E+00  1.203637376785E+00  1.218081025307E+00
  1.232697997611E+00  1.247490373582E+00  1.262460258065E+00  1.277609781162E+00
  1.292941098536E+00  1.308456391718E+00  1.324157868419E+00  1.340047762840E+00
  1.356128335994E+00  1.372401876026E+00  1.388870698538E+00  1.405537146920E+00
  1.422403592684E+00  1.439472435796E+00  1.456746105025E+00  1.474227058286E+00
  1.491917782985E+00  1.509820796381E+00  1.527938645937E+00  1.546273909689E+00
  1.564829196605E+00  1.583607146964E+00  1.602610432728E+00  1.621841757920E+00
  1.641303859016E+00  1.660999505324E+00  1.680931499388E+00  1.701102677380E+00
  1.721515909509E+00  1.742174100423E+00  1.763080189628E+00  1.784237151904E+00
  1.805647997726E+00  1.827315773699E+00  1.849243562983E+00  1.871434485739E+00
  1.893891699568E+00  1.916618399963E+00  1.939617820762E+00  1.962893234612E+00
  1.986447953427E+00  2.010285328868E+00  2.034408752815E+00  2.058821657848E+00
  2.083527517742E+00  2.108529847955E+00  2.133832206131E+00  2.159438192604E+00
  2.185351450916E+00  2.211575668327E+00  2.238114576347E+00  2.264971951263E+00
  2.292151614678E+00  2.319657434054E+00  2.347493323263E+00  2.375663243142E+00
  2.404171202060E+00  2.433021256484E+00  2.462217511562E+00  2.491764121701E+00
  2.521665291161E+00  2.551925274655E+00  2.582548377951E+00  2.613538958486E+00
  2.644901425988E+00  2.676640243100E+00  2.708759926017E+00  2.741265045130E+00
  2.774160225671E+00  2.807450148379E+00  2.841139550160E+00  2.875233224762E+00
  2.909736023459E+00  2.944652855740E+00  2.979988690009E+00  3.015748554289E+00
  3.051937536941E+00  3.088560787384E+00  3.125623516833E+00  3.163130999035E+00
  3.201088571023E+00  3.239501633875E+00  3.278375653482E+00  3.317716161324E+00
  3.357528755259E+00  3.397819100323E+00  3.438592929526E+00  3.479856044681E+00
  3.521614317217E+00  3.563873689024E+00  3.606640173292E+00  3.649919855371E+00
  3.693718893636E+00  3.738043520359E+00  3.782900042604E+00  3.828294843115E+00
  3.874234381232E+00  3.920725193807E+00  3.967773896133E+00  4.015387182886E+00
  4.063571829081E+00  4.112334691030E+00  4.161682707322E+00  4.211622899810E+00
  4.262162374608E+00  4.313308323103E+00  4.365068022981E+00  4.417448839256E+00
  4.470458225327E+00  4.524103724031E+00  4.578392968720E+00  4.633333684344E+00
  4.688933688556E+00  4.745200892819E+00  4.802143303533E+00  4.859769023175E+00
  4.918086251453E+00  4.977103286471E+00  5.036828525909E+00  5.097270468219E+00
  5.158437713838E+00  5.220338966404E+00  5.282983034001E+00  5.346378830409E+00
  5.410535376374E+00  5.475461800890E+00  5.541167342501E+00  5.607661350611E+00
  5.674953286818E+00  5.743052726260E+00  5.811969358975E+00  5.881712991283E+00
  5.952293547178E+00  6.023721069745E+00  6.096005722582E+00  6.169157791252E+00
  6.243187684748E+00  6.318105936964E+00  6.393923208208E+00  6.470650286707E+00
  6.548298090147E+00  6.626877667229E+00  6.706400199236E+00  6.786877001626E+00
  6.868319525646E+00  6.950739359954E+00  7.034148232273E+00  7.118558011060E+00
  7.203980707193E+00  7.290428475679E+00  7.377913617388E+00  7.466448580796E+00
  7.556045963766E+00  7.646718515331E+00  7.738479137515E+00  7.831340887165E+00
  7.925316977811E+00  8.020420781545E+00  8.116665830923E+00  8.214065820894E+00
  8.312634610745E+00  8.412386226074E+00  8.513334860787E+00  8.615494879116E+00
  8.718880817666E+00  8.823507387478E+00  8.929389476128E+00  9.036542149841E+00
  9.144980655639E+00  9.254720423507E+00  9.365777068589E+00  9.478166393412E+00
  9.591904390133E+00  9.707007242815E+00  9.823491329728E+00  9.941373225685E+00
  1.006066970439E+01  1.018139774085E+01  1.030357451374E+01  1.042721740790E+01
  1.055234401680E+01  1.067897214500E+01  1.080711981074E+01  1.093680524847E+01
  1.106804691145E+01  1.120086347439E+01  1.133527383608E+01  1.147129712211E+01
  1.160895268758E+01  1.174826011983E+01  1.188923924126E+01  1.203191011216E+01
  1.217629303351E+01  1.232240854991E+01  1.247027745251E+01  1.261992078194E+01
  1.277135983132E+01  1.292461614930E+01  1.307971154309E+01  1.323666808160E+01
  1.339550809858E+01  1.355625419577E+01  1.371892924612E+01  1.388355639707E+01
  1.405015907383E+01  1.421876098272E+01  1.438938611451E+01  1.456205874789E+01
  1.473680345286E+01  1.491364509430E+01  1.509260883543E+01  1.527372014145E+01
  1.545700478315E+01  1.564248884055E+01  1.583019870663E+01  1.602016109111E+01
  1.621240302421E+01  1.640695186050E+01  1.660383528282E+01  1.680308130622E+01
  1.700471828189E+01  1.720877490128E+01  1.741528020009E+01  1.762426356249E+01
  1.783575472524E+01  1.804978378194E+01  1.826638118733E+01  1.848557776158E+01
  1.870740469471E+01  1.893189355105E+01  1.915907627366E+01  1.938898518895E+01
  1.962165301122E+01  1.985711284735E+01  2.009539820152E+01  2.033654297994E+01
  2.058058149570E+01  2.082754847364E+01  2.107747905533E+01  2.133040880399E+01
  2.158637370964E+01  2.184541019416E+01  2.210755511649E+01  2.237284577788E+01
  2.264131992722E+01  2.291301576634E+01  2.318797195554E+01  2.346622761901E+01
  2.374782235043E+01  2.403279621864E+01  2.432118977326E+01  2.461304405054E+01
  2.490840057915E+01  2.520730138610E+01  2.550978900273E+01  2.581590647077E+01
  2.612569734841E+01  2.643920571660E+01  2.675647618519E+01  2.707755389942E+01
  2.740248454621E+01  2.773131436076E+01  2.806409013309E+01  2.840085921469E+01
  2.874166952527E+01  2.908656955957E+01  2.943560839428E+01  2.978883569502E+01
  3.014630172336E+01  3.050805734404E+01  3.087415403217E+01  3.124464388055E+01
  3.161957960712E+01  3.199901456240E+01  3.238300273715E+01  3.277159877000E+01
  3.316485795524E+01  3.356283625070E+01  3.396559028571E+01  3.437317736914E+01
  3.478565549757E+01  3.520308336354E+01  3.562552036390E+01  3.605302660827E+01
  3.648566292757E+01  3.692349088270E+01  3.736657277329E+01  3.781497164657E+01
  3.826875130633E+01  3.872797632200E+01  3.919271203787E+01  3.966302458232E+01
  4.013898087731E+01  4.062064864784E+01  4.110809643161E+01  4.160139358879E+01
  4.210061031186E+01  4.260581763560E+01  4.311708744723E+01  4.363449249659E+01
  4.415810640655E+01
</grid-data>
</grid>
<valence-charge total-charge="13" is-unscreening-charge="yes"
 rescaled-to-z-pseudo="no">
<radfunc>
<data npts="457">
  7.454922184883E-03  7.457339605438E-03  7.466628008555E-03  7.489001254022E-03
  7.534392265968E-03  7.619353644842E-03  7.769227869670E-03  7.998045145707E-03
  8.328188339093E-03  8.810495444298E-03  9.479582403391E-03  1.035739791885E-02
  1.162725143213E-02  1.319718273454E-02  1.536857052966E-02  1.788136669948E-02
  2.119992678702E-02  2.476442039950E-02  2.925689121205E-02  3.491699054490E-02
  4.204499267790E-02  4.905373852292E-02  5.747497543528E-02  6.758834301020E-02
  7.972695098431E-02  9.428695894295E-02  1.117386565820E-01  1.270566033852E-01
  1.445842090733E-01  1.646291292736E-01  1.875391312644E-01  2.137066699808E-01
  2.435738263123E-01  2.776375939804E-01  3.164554863012E-01  3.606514148719E-01
  4.109217678573E-01  4.680415851810E-01  5.103476559490E-01  5.563551331904E-01
  6.063595952047E-01  6.606759509451E-01  7.196390385772E-01  7.836041240615E-01
  8.529472735586E-01  9.280655698059E-01  1.009377138694E+00  1.097320948068E+00
  1.192356336362E+00  1.294962224030E+00  1.405635956008E+00  1.524891718637E+00
  1.653258469730E+00  1.791277315965E+00  1.939498267621E+00  2.098476297106E+00
  2.268766625049E+00  2.450919156102E+00  2.645471986593E+00  2.852943907978E+00
  3.073825834243E+00  3.308571088543E+00  3.557584494862E+00  3.821210235136E+00
  4.099718451580E+00  4.393290598654E+00  4.702003579820E+00  4.862029164000E+00
  5.025812741601E+00  5.193326778799E+00  5.364533841963E+00  5.539385990548E+00
  5.717824162169E+00  5.899777552266E+00  6.085162991138E+00  6.273884321367E+00
  6.465831779010E+00  6.660881382262E+00  6.858894331619E+00  7.059716425936E+00
  7.263177499121E+00  7.469090882551E+00  7.677252898682E+00  7.887442391635E+00
  8.099420300925E+00  8.312929284797E+00  8.527693399968E+00  8.743417844859E+00
  8.959788773660E+00  9.176473188805E+00  9.393118919603E+00  9.609354694940E+00
  9.824790318004E+00  1.003901695104E+01  1.025160751802E+01  1.046211723313E+01
  1.067008426242E+01  1.087503052607E+01  1.107646264794E+01  1.127387305854E+01
  1.146674125721E+01  1.165453523799E+01  1.183671308313E+01  1.201272472682E+01
  1.218201389065E+01  1.234402019080E+01  1.249818141553E+01  1.264393596967E+01
  1.278072548113E+01  1.290799756243E+01  1.302520871806E+01  1.313182738627E+01
  1.322733710173E+01  1.331123976269E+01  1.338305898428E+01  1.344234351667E+01
  1.348867070453E+01  1.352164996170E+01  1.354092623260E+01  1.354618340961E+01
  1.353714767356E+01  1.351359072259E+01  1.347533285307E+01  1.342224585492E+01
  1.335425568276E+01  1.327134486391E+01  1.317355460425E+01  1.306098655350E+01
  1.293380419263E+01  1.279223380792E+01  1.263656501856E+01  1.246715082785E+01
  1.228440717185E+01  1.208881194392E+01  1.188090347859E+01  1.166127848437E+01
  1.143058942121E+01  1.118954132562E+01  1.093888809378E+01  1.067942824079E+01
  1.041200016234E+01  1.013747693319E+01  9.856760685081E+00  9.570776614301E+00
  9.280466677162E+00  8.986783038069E+00  8.690681341399E+00  8.393113883540E+00
  8.095022765626E+00  7.797333110404E+00  7.500946428164E+00  7.206734216627E+00
  6.915531878118E+00  6.628133034050E+00  6.345284311911E+00  6.067680673432E+00
  5.795961344653E+00  5.530706399235E+00  5.272434035859E+00  5.021598579021E+00
  4.778589220401E+00  4.543729505333E+00  4.317277556304E+00  4.099427012913E+00
  3.890308655916E+00  3.689992671963E+00  3.498491505839E+00  3.315763238586E+00
  3.141715423103E+00  2.976209303737E+00  2.819064343151E+00  2.670062978265E+00
  2.528955527424E+00  2.395465172775E+00  2.269292945184E+00  2.150122643425E+00
  2.037625624724E+00  1.931465409639E+00  1.831302050418E+00  1.736796218247E+00
  1.647612970723E+00  1.563425166617E+00  1.483916500088E+00  1.408784131254E+00
  1.337740894314E+00  1.270517068419E+00  1.206861700437E+00  1.146543472909E+00
  1.089351115256E+00  1.035093361715E+00  9.835984657950E-01  9.347132883688E-01
  8.883012839180E-01  8.442375209490E-01  8.024025095524E-01  7.626821850969E-01
  7.249677376218E-01  6.891554696647E-01  6.551466280229E-01  6.228472199102E-01
  5.921678241814E-01  5.630234081408E-01  5.353331601246E-01  5.090203455622E-01
  4.840121813389E-01  4.602397068580E-01  4.376376404646E-01  4.161442279477E-01
  3.957010856994E-01  3.762530412363E-01  3.577479744891E-01  3.401366631163E-01
  3.233726351506E-01  3.074120316658E-01  2.922134783101E-01  2.777379613741E-01
  2.639487065561E-01  2.508110594983E-01  2.382923699375E-01  2.263618791039E-01
  2.149906107759E-01  2.041512661819E-01  1.938181229187E-01  1.839669380130E-01
  1.745748552190E-01  1.656203166075E-01  1.570829784733E-01  1.489436315578E-01
  1.411841255578E-01  1.337872978704E-01  1.267369065012E-01  1.200175670466E-01
  1.136146936457E-01  1.075144437829E-01  1.017036668122E-01  9.616985606515E-02
  9.090110439704E-02  8.588606301967E-02  8.111390346631E-02  7.657428253165E-02
  7.225731002540E-02  6.815351918395E-02  6.425383957960E-02  6.054957237141E-02
  5.703236774332E-02  5.369420437894E-02  5.052737082538E-02  4.752444860326E-02
  4.467829692422E-02  4.198203888237E-02  3.942904899124E-02  3.701294194311E-02
  3.472756247339E-02  3.256697621819E-02  3.052546145946E-02  2.859750165760E-02
  2.677777867794E-02  2.506116662319E-02  2.344272619028E-02  2.191769947624E-02
  2.048150516354E-02  1.912973402186E-02  1.785814466877E-02  1.666265953809E-02
  1.553936101026E-02  1.448448766460E-02  1.349443061962E-02  1.256572992862E-02
  1.169507101219E-02  1.087928110155E-02  1.011532567980E-02  9.400304908999E-03
  8.731450034541E-03  8.106119762040E-03  7.521796604535E-03  6.976083200384E-03
  6.466698604419E-03  5.991474556674E-03  5.548351734517E-03  5.135375995188E-03
  4.750694616608E-03  4.392552544947E-03  4.059288657849E-03  3.749332052311E-03
  3.461198366264E-03  3.193486142647E-03  2.944873244489E-03  2.714113329046E-03
  2.500032388514E-03  2.301525364242E-03  2.117552840693E-03  1.947137824745E-03
  1.789362615169E-03  1.643365766444E-03  1.508339150345E-03  1.383525118029E-03
  1.268213764702E-03  1.161740298298E-03  1.063482512981E-03  9.728583677387E-04
  8.893236698106E-04  8.123698621869E-04  7.415219140143E-04  6.763363123259E-04
  6.163991531724E-04  5.613243299243E-04  5.107518162415E-04  4.643460409813E-04
  4.217943521186E-04  3.828055665946E-04  3.471086028792E-04  3.144511929389E-04
  2.845986702272E-04  2.573328302756E-04  2.324508604414E-04  2.097643353744E-04
  1.890982747884E-04  1.702902601701E-04  1.531896071204E-04  1.376565901025E-04
  1.235617164663E-04  1.107850467256E-04  9.921555818352E-05  8.875054912888E-05
  7.929508096174E-05  7.076145574700E-05  6.306872683791E-05  5.614224035734E-05
  4.991320546922E-05  4.431829151534E-05  3.929925023225E-05  3.480256139711E-05
  3.077910037984E-05  2.718382620016E-05  2.397548880208E-05  2.111635436350E-05
  1.857194755624E-05  1.631080975983E-05  1.430427231324E-05  1.252624395998E-05
  1.095301170677E-05  9.563054372515E-06  8.336868154185E-06  7.256803580340E-06
  6.306913260892E-06  5.472809875150E-06  4.741533869093E-06  4.101430358057E-06
  3.542034753225E-06  3.053966649890E-06  2.628831533014E-06  2.259129871529E-06
  1.938173187541E-06  1.660006700410E-06  1.419338158911E-06  1.211472487511E-06
  1.032251885485E-06  8.780010301815E-07  7.454770484652E-07  6.318239331096E-07
  5.345310938969E-07  4.513957462721E-07  3.804888536586E-07  3.201243529191E-07
  2.688314058928E-07  2.253294334098E-07  1.885057016197E-07  1.573952438041E-07
  1.311629140154E-07  1.090873818366E-07  9.054689021954E-08  7.500661069698E-08
  6.200744220641E-08  5.115611128672E-08  4.211644246442E-08  3.460167820989E-08
  2.836773789217E-08  2.320731467571E-08  1.894471827624E-08  1.543137991844E-08
  1.254194371975E-08  1.017087606499E-08  8.229531349038E-09  6.643618760687E-09
  5.351020579237E-09  4.299917774876E-09  3.447183566829E-09  2.757010022028E-09
  2.199736798289E-09  1.750854771123E-09  1.390160561640E-09  1.101040927057E-09
  8.698686113858E-10  6.854936059512E-10  5.388158612860E-10  4.224273461748E-10
  3.303129879626E-10  2.576014710395E-10  2.003581369407E-10  1.554133377027E-10
  1.202205606690E-10  9.273948325035E-11  7.133984435784E-11  5.472264828625E-11
  4.185575847946E-11  3.192140352172E-11  2.427351545194E-11  1.840315970408E-11
  1.391060431904E-11  1.048282038573E-11  7.875412002298E-12  5.898147738531E-12
  4.403411311064E-12  3.277011052947E-12  2.430889336136E-12  1.797357486666E-12
  1.324551592835E-12  9.728622499785E-13  7.121386856624E-13  5.195065527364E-13
  3.776703990597E-13  2.735976373211E-13  1.975017721459E-13  1.420595571405E-13
  1.018103740216E-13  7.269705204016E-14  5.171607920844E-14  3.665211168317E-14
  2.587720560575E-14  1.819955714062E-14  1.274997064447E-14  8.896968993383E-15
  6.183563779340E-15  4.280343093583E-15  2.950802367172E-15  2.025825545669E-15
  1.384977286422E-15  9.428443168126E-16  6.391044217535E-16  4.313359419182E-16
  2.898335633737E-16  1.938866155789E-16  1.291188751884E-16  8.559545503285E-17
  5.648156642407E-17  3.709654364770E-17  2.424968744376E-17  1.577609381897E-17
  1.021381507473E-17  6.580301942883E-18  4.218384158372E-18  2.690673553786E-18
  1.707500473664E-18  0.000000000000E+00  0.000000000000E+00  0.000000000000E+00
  0.000000000000E+00
</data>
</radfunc>
</valence-charge>
<pseudocore-charge matching-radius="0.925815378406"
 number-of-continuous-derivatives="4">
<annotation model-charge-form="Teter function with specified parameters" />
<radfunc>
<data npts="290">
  6.297196844586E+01  6.296912228298E+01  6.296061384892E+01  6.294641786837E+01
  6.292667852630E+01  6.290071971462E+01  6.286762947265E+01  6.282972990043E+01
  6.278710517153E+01  6.273738363311E+01  6.268132036606E+01  6.262036106445E+01
  6.254665709684E+01  6.246964442180E+01  6.237874883565E+01  6.228792152243E+01
  6.218327026908E+01  6.208401151341E+01  6.197235523942E+01  6.184677831698E+01
  6.170557730166E+01  6.158009539670E+01  6.144232498748E+01  6.129109300924E+01
  6.112512078873E+01  6.094301589068E+01  6.074326363368E+01  6.058088355852E+01
  6.040690850663E+01  6.022054655156E+01  6.002095721804E+01  5.980724937747E+01
  5.957847920048E+01  5.933364819968E+01  5.907170140188E+01  5.879152569533E+01
  5.849194840576E+01  5.817173616312E+01  5.794616058902E+01  5.771044079973E+01
  5.746416567819E+01  5.720691197181E+01  5.693824441889E+01  5.665771594225E+01
  5.636486791737E+01  5.605923052370E+01  5.574032318798E+01  5.540765512916E+01
  5.506072601526E+01  5.469902674303E+01  5.432204035205E+01  5.392924308551E+01
  5.352010561060E+01  5.309409441193E+01  5.265067337226E+01  5.218930555488E+01
  5.170945520293E+01  5.121058997086E+01  5.069218340369E+01  5.015371767971E+01
  4.959468663196E+01  4.901459906389E+01  4.841298237345E+01  4.778938649926E+01
  4.714338820110E+01  4.647459568520E+01  4.578265358269E+01  4.542790164961E+01
  4.506724828660E+01  4.470066175291E+01  4.432811364982E+01  4.394957911826E+01
  4.356503704187E+01  4.317447025534E+01  4.277786575806E+01  4.237521493265E+01
  4.196651376853E+01  4.155176308993E+01  4.113096878843E+01  4.070414205950E+01
  4.027129964284E+01  3.983246406609E+01  3.938766389155E+01  3.893693396545E+01
  3.848031566921E+01  3.801785717222E+01  3.754961368552E+01  3.707564771572E+01
  3.659602931842E+01  3.611083635043E+01  3.562015471993E+01  3.512407863373E+01
  3.462271084053E+01  3.411616286944E+01  3.360455526238E+01  3.308801779946E+01
  3.256668971599E+01  3.204071990985E+01  3.151026713795E+01  3.097550020027E+01
  3.043659811002E+01  2.989375024847E+01  2.934715650262E+01  2.879702738422E+01
  2.824358412837E+01  2.768705876980E+01  2.712769419507E+01  2.656574416885E+01
  2.600147333221E+01  2.543515717100E+01  2.486708195246E+01  2.429754462783E+01
  2.372685269914E+01  2.315532404806E+01  2.258328672488E+01  2.201107869562E+01
  2.143904754539E+01  2.086755013616E+01  2.029695221715E+01  1.972762798620E+01
  1.915995960060E+01  1.859433663587E+01  1.803115549145E+01  1.747081874208E+01
  1.691373443412E+01  1.636031532628E+01  1.581097807430E+01  1.526614235972E+01
  1.472622996296E+01  1.419166378139E+01  1.366286679345E+01  1.314026097025E+01
  1.262426613662E+01  1.211529878389E+01  1.161377083729E+01  1.112008838145E+01
  1.063465034769E+01  1.015784716782E+01  9.690059399357E+00  9.231656327826E+00
  8.782994552372E+00  8.344416561515E+00  7.916249306436E+00  7.498802779804E+00
  7.092368608682E+00  6.697218670605E+00  6.313603742416E+00  5.941752191904E+00
  5.581868722702E+00  5.234133183229E+00  4.898699450745E+00  4.575694401762E+00
  4.265216980138E+00  3.967337374179E+00  3.682096313915E+00  3.409504499484E+00
  3.149542171117E+00  2.902158830711E+00  2.667273124250E+00  2.444772893487E+00
  2.234515404256E+00  2.036327757622E+00  1.850007488676E+00  1.675323356287E+00
  1.512016325425E+00  1.359800741818E+00  1.218365696760E+00  1.087376577746E+00
  9.664767984401E-01  8.552896991795E-01  7.534206068861E-01  6.604590409006E-01
  5.759810489158E-01  4.995516548999E-01  4.307273987138E-01  3.690589450853E-01
  3.140937377487E-01  2.653786729484E-01  2.224627651762E-01  1.848997770291E-01
  1.522507844601E-01  1.240866485174E-01  9.999036493886E-02  7.955926374079E-02
  6.240703222024E-02  4.816553659840E-02  3.648641987071E-02  2.704245628316E-02
  1.952864620251E-02  1.366303895106E-02  9.187275380593E-03  5.866846496655E-03
  3.491069229961E-03  1.872785389347E-03  8.477948106976E-04  2.740386190657E-04
  3.055321949342E-05  1.621999460128E-05  1.483395821823E-04  3.610629065171E-04
  6.037137244606E-04  8.390392171188E-04  1.041426024751E-03  1.195119024954E-03
  1.292479059203E-03  1.332313719702E-03  1.318312251581E-03  1.257611675915E-03
  1.159516504978E-03  1.034389046270E-03  8.927214520178E-04  7.443945692278E-04
  5.981225051091E-04  4.610758784526E-04  3.386712153372E-04  2.345090933622E-04
  1.504396468594E-04  8.673108722009E-05  4.231509428365E-05  1.508236971458E-05
  2.202323710800E-06  4.427396925478E-07  6.468210016969E-06  1.709997982294E-05
  2.952434267144E-05  4.144162586524E-05  5.115278447413E-05  5.758538329888E-05
  6.026499090732E-05  5.924147965167E-05  5.498221484569E-05  4.824549107080E-05
  3.994778369713E-05  3.103746900733E-05  2.238575578571E-05  1.470287430992E-05
  8.484358887106E-06  3.988851955907E-06  1.245578723745E-06  8.680072828211E-08
  1.984154522763E-07  1.180612447014E-06  2.610213722654E-06  4.097000198708E-06
  5.327833608864E-06  6.094508299811E-06  6.303725313751E-06  5.970052928582E-06
  5.194909413115E-06  4.136206574937E-06  2.974139554078E-06  1.878619533311E-06
  9.830612432376E-07  3.678103664814E-07  5.467340611210E-08  0.000000000000E+00
  0.000000000000E+00  0.000000000000E+00  0.000000000000E+00  0.000000000000E+00
  0.000000000000E+00  0.000000000000E+00  0.000000000000E+00  0.000000000000E+00
  0.000000000000E+00  0.000000000000E+00  0.000000000000E+00  0.000000000000E+00
  0.000000000000E+00  0.000000000000E+00  0.000000000000E+00  0.000000000000E+00
  0.000000000000E+00  0.000000000000E+00  0.000000000000E+00  0.000000000000E+00
  0.000000000000E+00  0.000000000000E+00  0.000000000000E+00  0.000000000000E+00
  0.000000000000E+00  0.000000000000E+00  0.000000000000E+00  0.000000000000E+00
  0.000000000000E+00  0.000000000000E+00  0.000000000000E+00  0.000000000000E+00
  0.000000000000E+00  0.000000000000E+00
</data>
</radfunc>
</pseudocore-charge>
<semilocal-potentials set="scalar_relativistic">
<slps n="5" l="s" rc="2.10852984796" eref="-0.301764984608">
<radfunc>
<data npts="290">
  6.168523216440E+00  6.165239960355E+00  6.155430482395E+00  6.139082464429E+00
  6.116389529156E+00  6.086615007310E+00  6.048773216917E+00  6.005585604433E+00
  5.957209098598E+00  5.901038170582E+00  5.838036496426E+00  5.769931014444E+00
  5.688135970344E+00  5.603305004297E+00  5.504008863750E+00  5.405671359061E+00
  5.293448474837E+00  5.188064266671E+00  5.070728951542E+00  4.940274700224E+00
  4.795466786270E+00  4.668418630107E+00  4.530673886524E+00  4.381535745095E+00
  4.220301243342E+00  4.046269851367E+00  3.858753787285E+00  3.708867345246E+00
  3.550756157721E+00  3.384170324957E+00  3.208880116041E+00  3.024680416805E+00
  2.831395497128E+00  2.628884067080E+00  2.417044579641E+00  2.195820725081E+00
  1.965207048715E+00  1.725254610113E+00  1.560151285115E+00  1.390996310042E+00
  1.217853724566E+00  1.040802264775E+00  8.599359799050E-01  6.753648010062E-01
  4.872150533282E-01  2.956299041521E-01  1.007697378647E-01 -9.718754977111E-02
 -2.980463459029E-01 -5.015932107779E-01 -7.075968706573E-01 -9.158083196361E-01
 -1.125961035802E+00 -1.337771316330E+00 -1.550938735190E+00 -1.765146726169E+00
 -1.980063292904E+00 -2.195341846613E+00 -2.410622171207E+00 -2.625531514560E+00
 -2.839685803871E+00 -3.052690982332E+00 -3.264144463829E+00 -3.473636702025E+00
 -3.680752870102E+00 -3.885074647601E+00 -4.086182111210E+00 -4.185399299234E+00
 -4.283655727090E+00 -4.380899357187E+00 -4.477078443285E+00 -4.572141601348E+00
 -4.666037882006E+00 -4.758716844627E+00 -4.850128633043E+00 -4.940224052969E+00
 -5.028954651163E+00 -5.116272796375E+00 -5.202131762151E+00 -5.286485811567E+00
 -5.369290283952E+00 -5.450501683697E+00 -5.530077771241E+00 -5.607977656310E+00
 -5.684161893536E+00 -5.758592580539E+00 -5.831233458595E+00 -5.902050015994E+00
 -5.971009594206E+00 -6.038081496954E+00 -6.103237102311E+00 -6.166449977909E+00
 -6.227695999339E+00 -6.286953471823E+00 -6.344203255163E+00 -6.399428892001E+00
 -6.452616739322E+00 -6.503756103110E+00 -6.552839375983E+00 -6.599862177552E+00
 -6.644823497130E+00 -6.687725838333E+00 -6.728575364930E+00 -6.767382047165E+00
 -6.804159807579E+00 -6.838926665201E+00 -6.871704876640E+00 -6.902521072562E+00
 -6.931406387590E+00 -6.958396581559E+00 -6.983532149725E+00 -7.006858419306E+00
 -7.028425629506E+00 -7.048288991935E+00 -7.066508728208E+00 -7.083150081343E+00
 -7.098283297512E+00 -7.111983574692E+00 -7.124330974811E+00 -7.135410296115E+00
 -7.145310902679E+00 -7.154126508288E+00 -7.161954912247E+00 -7.168897685105E+00
 -7.175059802789E+00 -7.180549228140E+00 -7.185476439460E+00 -7.189953906254E+00
 -7.194095512993E+00 -7.198015932353E+00 -7.201829949989E+00 -7.205651743552E+00
 -7.209594119220E+00 -7.213767709590E+00 -7.218280137329E+00 -7.223235149474E+00
 -7.228731727764E+00 -7.234863180800E+00 -7.241716224284E+00 -7.249370055902E+00
 -7.257895431791E+00 -7.267353751828E+00 -7.277796161240E+00 -7.289262676292E+00
 -7.301781342034E+00 -7.315367430348E+00 -7.330022686775E+00 -7.345734634945E+00
 -7.362475947833E+00 -7.380203895654E+00 -7.398859880949E+00 -7.418369072401E+00
 -7.438640150230E+00 -7.459565177485E+00 -7.481019613403E+00 -7.502862486825E+00