<?xml version="1.0" encoding="UTF-8" ?>
<psml version="1.1" energy_unit="hartree" length_unit="bohr"
 uuid="8b0f4a70-be6c-11e7-42e1-a7627df12a32"
 xmlns="http://esl.cecam.org/PSML/ns/1.1">
<provenance creator="ONCVPSP-3.3.0+psml-3.3.0-73 (scalar-relativistic)"
 date="2017-10-31">
<annotation action="semilocal-pseudopotential-generation"
 action-cont="projectors-generation" />
<input-file name="oncvpsp-input">
<![CDATA[# atsym z nc nv iexc psfile
In 49 6 5 4 upf
# n l f
1 0 2.0
2 0 2.0
2 1 6.0
3 0 2.0
3 1 6.0
3 2 10.0
4 0 2.0
4 1 6.0
4 2 10.0
5 0 2.0
5 1 1.0
# lmax
2
# l rc ep ncon nbas qcut
0 1.6 0.0 5 8 9.0
1 1.6 0.0 5 8 8.8
2 1.7 0.0 4 7 9.0
# lloc lpopt rc5 dvloc0
4 5 1.5 0.0
# l nproj debl
0 2 1.0
1 2 1.0
2 2 1.5
# icmod fcfact rcfact
3 5.0 1.44
# epsh1 epsh2 depsh
-12.0 12.0 0.02
# rlmax drl
6.0 0.01
 0
]]>
</input-file>
</provenance>
<pseudo-atom-spec atomic-label="In" atomic-number="49" z-pseudo="21"
 flavor="Hamann&apos;s oncvpsp" relativity="scalar" spin-dft="no"
 core-corrections="yes">
<annotation pseudo-energy="-190.359772480" />
<exchange-correlation>
<annotation oncvpsp-xc-code="4" oncvpsp-xc-type="GGA -- Perdew-Burke-Ernzerhof" />
<libxc-info number-of-functionals="2">
<functional name="Perdew, Burke &amp; Ernzerhof (GGA)" type="exchange" id="101" />
<functional name="Perdew, Burke &amp; Ernzerhof (GGA)" type="correlation"
 id="130" />
</libxc-info>
</exchange-correlation>
<valence-configuration total-valence-charge="21">
<shell n="4" l="s" occupation="2" />
<shell n="4" l="p" occupation="6" />
<shell n="4" l="d" occupation="10" />
<shell n="5" l="s" occupation="2" />
<shell n="5" l="p" occupation="1" />
</valence-configuration>
</pseudo-atom-spec>
<grid npts="457">
<annotation type="sampled from oncvpsp log grid"
 recipe="r(i:1..N) = r1*exp(a*(i-1)) + r=0; resampled"
 recipe-cont="r1: scale; a: step" scale="0.102040816327E-04"
 step="0.119285708653E-01" delta="0.500000000000E-02" rmax="44.1581064066" />
<grid-data>
  0.000000000000E+00  5.042436366198E-03  1.007187092528E-02  1.510941245291E-02
  2.011777176121E-02  2.523536637175E-02  3.054202401815E-02  3.566518465412E-02
  4.066587435065E-02  4.581790627188E-02  5.101053189425E-02  5.611822836574E-02
  6.173735967777E-02  6.711377067229E-02  7.295838755272E-02  7.837152581763E-02
  8.418629118611E-02  8.936016040508E-02  9.485200209104E-02  1.006813580000E-01
  1.068689708730E-01  1.120917571602E-01  1.175697858846E-01  1.233155309823E-01
  1.293420760023E-01  1.356631438985E-01  1.422931282787E-01  1.474773974107E-01
  1.528505487941E-01  1.584194641135E-01  1.641912757790E-01  1.701733760607E-01
  1.763734265569E-01  1.827993680065E-01  1.894594304590E-01  1.963621438154E-01
  2.035163487527E-01  2.109312080467E-01  2.160239311338E-01  2.212396129270E-01
  2.265812221416E-01  2.320517991689E-01  2.376544578081E-01  2.433923870374E-01
  2.492688528300E-01  2.552872000128E-01  2.614508541699E-01  2.677633235929E-01
  2.742282012778E-01  2.808491669694E-01  2.876299892567E-01  2.945745277173E-01
  3.016867351146E-01  3.089706596472E-01  3.164304472537E-01  3.240703439722E-01
  3.318946983570E-01  3.399079639542E-01  3.481147018359E-01  3.565195831970E-01
  3.651273920137E-01  3.739430277665E-01  3.829715082289E-01  3.922179723236E-01
  4.016876830473E-01  4.113860304668E-01  4.213185347864E-01  4.263743572039E-01
  4.314908494903E-01  4.366687396842E-01  4.419087645604E-01  4.472116697351E-01
  4.525782097720E-01  4.580091482892E-01  4.635052580687E-01  4.690673211655E-01
  4.746961290195E-01  4.803924825677E-01  4.861571923585E-01  4.919910786669E-01
  4.978949716109E-01  5.038697112702E-01  5.099161478054E-01  5.160351415791E-01
  5.222275632780E-01  5.284942940374E-01  5.348362255658E-01  5.412542602726E-01
  5.477493113959E-01  5.543223031326E-01  5.609741707702E-01  5.677058608195E-01
  5.745183311493E-01  5.814125511231E-01  5.883895017366E-01  5.954501757574E-01
  6.025955778665E-01  6.098267248009E-01  6.171446454985E-01  6.245503812445E-01
  6.320449858194E-01  6.396295256493E-01  6.473050799571E-01  6.550727409165E-01
  6.629336138075E-01  6.708888171732E-01  6.789394829793E-01  6.870867567751E-01
  6.953317978564E-01  7.036757794306E-01  7.121198887838E-01  7.206653274492E-01
  7.293133113786E-01  7.380650711151E-01  7.469218519685E-01  7.558849141921E-01
  7.649555331624E-01  7.741349995604E-01  7.834246195551E-01  7.928257149898E-01
  8.023396235697E-01  8.119676990525E-01  8.217113114411E-01  8.315718471784E-01
  8.415507093446E-01  8.516493178567E-01  8.618691096710E-01  8.722115389870E-01
  8.826780774549E-01  8.932702143843E-01  9.039894569569E-01  9.148373304404E-01
  9.258153784057E-01  9.369251629466E-01  9.481682649019E-01  9.595462840808E-01
  9.710608394897E-01  9.827135695636E-01  9.945061323984E-01  1.006440205987E+00
  1.018517488459E+00  1.030739698321E+00  1.043108574700E+00  1.055625877597E+00
  1.068293388128E+00  1.081112908785E+00  1.094086263691E+00  1.107215298855E+00
  1.120501882441E+00  1.133947905031E+00  1.147555279891E+00  1.161325943250E+00
  1.175261854569E+00  1.189364996824E+00  1.203637376785E+00  1.218081025307E+00
  1.232697997611E+00  1.247490373582E+00  1.262460258065E+00  1.277609781162E+00
  1.292941098536E+00  1.308456391718E+00  1.324157868419E+00  1.340047762840E+00
  1.356128335994E+00  1.372401876026E+00  1.388870698538E+00  1.405537146920E+00
  1.422403592684E+00  1.439472435796E+00  1.456746105025E+00  1.474227058286E+00
  1.491917782985E+00  1.509820796381E+00  1.527938645937E+00  1.546273909689E+00
  1.564829196605E+00  1.583607146964E+00  1.602610432728E+00  1.621841757920E+00
  1.641303859016E+00  1.660999505324E+00  1.680931499388E+00  1.701102677380E+00
  1.721515909509E+00  1.742174100423E+00  1.763080189628E+00  1.784237151904E+00
  1.805647997726E+00  1.827315773699E+00  1.849243562983E+00  1.871434485739E+00
  1.893891699568E+00  1.916618399963E+00  1.939617820762E+00  1.962893234612E+00
  1.986447953427E+00  2.010285328868E+00  2.034408752815E+00  2.058821657848E+00
  2.083527517742E+00  2.108529847955E+00  2.133832206131E+00  2.159438192604E+00
  2.185351450916E+00  2.211575668327E+00  2.238114576347E+00  2.264971951263E+00
  2.292151614678E+00  2.319657434054E+00  2.347493323263E+00  2.375663243142E+00
  2.404171202060E+00  2.433021256484E+00  2.462217511562E+00  2.491764121701E+00
  2.521665291161E+00  2.551925274655E+00  2.582548377951E+00  2.613538958486E+00
  2.644901425988E+00  2.676640243100E+00  2.708759926017E+00  2.741265045130E+00
  2.774160225671E+00  2.807450148379E+00  2.841139550160E+00  2.875233224762E+00
  2.909736023459E+00  2.944652855740E+00  2.979988690009E+00  3.015748554289E+00
  3.051937536941E+00  3.088560787384E+00  3.125623516833E+00  3.163130999035E+00
  3.201088571023E+00  3.239501633875E+00  3.278375653482E+00  3.317716161324E+00
  3.357528755259E+00  3.397819100323E+00  3.438592929526E+00  3.479856044681E+00
  3.521614317217E+00  3.563873689024E+00  3.606640173292E+00  3.649919855371E+00
  3.693718893636E+00  3.738043520359E+00  3.782900042604E+00  3.828294843115E+00
  3.874234381232E+00  3.920725193807E+00  3.967773896133E+00  4.015387182886E+00
  4.063571829081E+00  4.112334691030E+00  4.161682707322E+00  4.211622899810E+00
  4.262162374608E+00  4.313308323103E+00  4.365068022981E+00  4.417448839256E+00
  4.470458225327E+00  4.524103724031E+00  4.578392968720E+00  4.633333684344E+00
  4.688933688556E+00  4.745200892819E+00  4.802143303533E+00  4.859769023175E+00
  4.918086251453E+00  4.977103286471E+00  5.036828525909E+00  5.097270468219E+00
  5.158437713838E+00  5.220338966404E+00  5.282983034001E+00  5.346378830409E+00
  5.410535376374E+00  5.475461800890E+00  5.541167342501E+00  5.607661350611E+00
  5.674953286818E+00  5.743052726260E+00  5.811969358975E+00  5.881712991283E+00
  5.952293547178E+00  6.023721069745E+00  6.096005722582E+00  6.169157791252E+00
  6.243187684748E+00  6.318105936964E+00  6.393923208208E+00  6.470650286707E+00
  6.548298090147E+00  6.626877667229E+00  6.706400199236E+00  6.786877001626E+00
  6.868319525646E+00  6.950739359954E+00  7.034148232273E+00  7.118558011060E+00
  7.203980707193E+00  7.290428475679E+00  7.377913617388E+00  7.466448580796E+00
  7.556045963766E+00  7.646718515331E+00  7.738479137515E+00  7.831340887165E+00
  7.925316977811E+00  8.020420781545E+00  8.116665830923E+00  8.214065820894E+00
  8.312634610745E+00  8.412386226074E+00  8.513334860787E+00  8.615494879116E+00
  8.718880817666E+00  8.823507387478E+00  8.929389476128E+00  9.036542149841E+00
  9.144980655639E+00  9.254720423507E+00  9.365777068589E+00  9.478166393412E+00
  9.591904390133E+00  9.707007242815E+00  9.823491329728E+00  9.941373225685E+00
  1.006066970439E+01  1.018139774085E+01  1.030357451374E+01  1.042721740790E+01
  1.055234401680E+01  1.067897214500E+01  1.080711981074E+01  1.093680524847E+01
  1.106804691145E+01  1.120086347439E+01  1.133527383608E+01  1.147129712211E+01
  1.160895268758E+01  1.174826011983E+01  1.188923924126E+01  1.203191011216E+01
  1.217629303351E+01  1.232240854991E+01  1.247027745251E+01  1.261992078194E+01
  1.277135983132E+01  1.292461614930E+01  1.307971154309E+01  1.323666808160E+01
  1.339550809858E+01  1.355625419577E+01  1.371892924612E+01  1.388355639707E+01
  1.405015907383E+01  1.421876098272E+01  1.438938611451E+01  1.456205874789E+01
  1.473680345286E+01  1.491364509430E+01  1.509260883543E+01  1.527372014145E+01
  1.545700478315E+01  1.564248884055E+01  1.583019870663E+01  1.602016109111E+01
  1.621240302421E+01  1.640695186050E+01  1.660383528282E+01  1.680308130622E+01
  1.700471828189E+01  1.720877490128E+01  1.741528020009E+01  1.762426356249E+01
  1.783575472524E+01  1.804978378194E+01  1.826638118733E+01  1.848557776158E+01
  1.870740469471E+01  1.893189355105E+01  1.915907627366E+01  1.938898518895E+01
  1.962165301122E+01  1.985711284735E+01  2.009539820152E+01  2.033654297994E+01
  2.058058149570E+01  2.082754847364E+01  2.107747905533E+01  2.133040880399E+01
  2.158637370964E+01  2.184541019416E+01  2.210755511649E+01  2.237284577788E+01
  2.264131992722E+01  2.291301576634E+01  2.318797195554E+01  2.346622761901E+01
  2.374782235043E+01  2.403279621864E+01  2.432118977326E+01  2.461304405054E+01
  2.490840057915E+01  2.520730138610E+01  2.550978900273E+01  2.581590647077E+01
  2.612569734841E+01  2.643920571660E+01  2.675647618519E+01  2.707755389942E+01
  2.740248454621E+01  2.773131436076E+01  2.806409013309E+01  2.840085921469E+01
  2.874166952527E+01  2.908656955957E+01  2.943560839428E+01  2.978883569502E+01
  3.014630172336E+01  3.050805734404E+01  3.087415403217E+01  3.124464388055E+01
  3.161957960712E+01  3.199901456240E+01  3.238300273715E+01  3.277159877000E+01
  3.316485795524E+01  3.356283625070E+01  3.396559028571E+01  3.437317736914E+01
  3.478565549757E+01  3.520308336354E+01  3.562552036390E+01  3.605302660827E+01
  3.648566292757E+01  3.692349088270E+01  3.736657277329E+01  3.781497164657E+01
  3.826875130633E+01  3.872797632200E+01  3.919271203787E+01  3.966302458232E+01
  4.013898087731E+01  4.062064864784E+01  4.110809643161E+01  4.160139358879E+01
  4.210061031186E+01  4.260581763560E+01  4.311708744723E+01  4.363449249659E+01
  4.415810640655E+01
</grid-data>
</grid>
<valence-charge total-charge="21" is-unscreening-charge="yes"
 rescaled-to-z-pseudo="no">
<radfunc>
<data npts="457">
  6.216917152662E+00  6.220705697823E+00  6.232031590189E+00  6.250929334895E+00
  6.277208386156E+00  6.311770873222E+00  6.355833970503E+00  6.406308708917E+00
  6.463085786289E+00  6.529328149958E+00  6.604034610005E+00  6.685282842501E+00
  6.783540931342E+00  6.886235967758E+00  7.007475621763E+00  7.128656352256E+00
  7.268317276622E+00  7.400814346974E+00  7.549894126520E+00  7.717597159473E+00
  7.906203988427E+00  8.073840916706E+00  8.257915093747E+00  8.459989543572E+00
  8.681763402514E+00  8.925080368441E+00  9.191936653155E+00  9.408817213721E+00
  9.641118138937E+00  9.889862942327E+00  1.015612883370E+01  1.044104654359E+01
  1.074579936288E+01  1.107162120254E+01  1.141979344223E+01  1.179164029554E+01
  1.218852237307E+01  1.261182807269E+01  1.290940520350E+01  1.321976808701E+01
  1.354333251387E+01  1.388050989872E+01  1.423170426296E+01  1.459730878285E+01
  1.497770185929E+01  1.537324266336E+01  1.578426610970E+01  1.621107720839E+01
  1.665394474484E+01  1.711309423748E+01  1.758870012344E+01  1.808087712501E+01
  1.858967075325E+01  1.911504691051E+01  1.965688056205E+01  2.021494345693E+01
  2.078889089236E+01  2.137824753292E+01  2.198239231728E+01  2.260054251114E+01
  2.323173699605E+01  2.387481892035E+01  2.452841788105E+01  2.519093185431E+01
  2.586050914728E+01  2.653503070584E+01  2.721209318060E+01  2.755074458010E+01
  2.788899322634E+01  2.822645204216E+01  2.856271358829E+01  2.889734977171E+01
  2.922991160868E+01  2.955992904908E+01  2.988691086848E+01  3.021034463508E+01
  3.052969675847E+01  3.084441262782E+01  3.115391684702E+01  3.145761357451E+01
  3.175488697567E+01  3.204510179576E+01  3.232760406124E+01  3.260172191739E+01
  3.286676660990E+01  3.312203361798E+01  3.336680394610E+01  3.360034558113E+01
  3.382191512114E+01  3.403075958146E+01  3.422611838274E+01  3.440722552510E+01
  3.457331195120E+01  3.472360809987E+01  3.485734665092E+01  3.497376545993E+01
  3.507211068026E+01  3.515164006803E+01  3.521162646344E+01  3.525136144004E+01
  3.527015911122E+01  3.526736008083E+01  3.524233552233E+01  3.519449136841E+01
  3.512327259025E+01  3.502816754277E+01  3.490871234978E+01  3.476449529978E+01
  3.459516122078E+01  3.440041579957E+01  3.418002980854E+01  3.393384320073E+01
  3.366176903148E+01  3.336379716348E+01  3.303999771008E+01  3.269052417090E+01
  3.231561621272E+01  3.191560204877E+01  3.149090036950E+01  3.104202177910E+01
  3.056956969358E+01  3.007424065859E+01  2.955682404810E+01  2.901820110915E+01
  2.845934332235E+01  2.788131005334E+01  2.728524547680E+01  2.667237476135E+01
  2.604399951196E+01  2.540149247444E+01  2.474629151590E+01  2.407989290482E+01
  2.340384392384E+01  2.271973485916E+01  2.202919042020E+01  2.133386065383E+01
  2.063541142704E+01  1.993551456167E+01  1.923583771333E+01  1.853803409467E+01
  1.784373214964E+01  1.715452529110E+01  1.647196181754E+01  1.579753512702E+01
  1.513267434656E+01  1.447873549349E+01  1.383699328102E+01  1.320863367455E+01
  1.259474729696E+01  1.199632377041E+01  1.141424707044E+01  1.084929195349E+01
  1.030212150369E+01  9.773285827455E+00  9.263221906702E+00  8.772254602796E+00
  8.300598784843E+00  7.848362537375E+00  7.415551384906E+00  7.002073454247E+00
  6.607745480563E+00  6.232299550132E+00  5.875390462062E+00  5.536603582980E+00
  5.215463063252E+00  4.911440280544E+00  4.623962376630E+00  4.352420756124E+00
  4.096179421176E+00  3.854583023799E+00  3.626964527225E+00  3.412652379129E+00
  3.210977112421E+00  3.021277303278E+00  2.842904830866E+00  2.675229398460E+00
  2.517642291248E+00  2.369559361593E+00  2.230423247886E+00  2.099704857853E+00
  1.976904207014E+00  1.861550748703E+00  1.753203232977E+00  1.651449050722E+00
  1.555902413476E+00  1.466199778886E+00  1.381994209372E+00  1.302955258024E+00
  1.228768654724E+00  1.159136003027E+00  1.093774423788E+00  1.032416153579E+00
  9.748081053512E-01  9.207113982987E-01  8.699008632694E-01  8.221645295716E-01
  7.773030984751E-01  7.351294081969E-01  6.954678946697E-01  6.581540519170E-01
  6.230338954145E-01  5.899634313903E-01  5.588081346280E-01  5.294424369626E-01
  5.017492283240E-01  4.756193718678E-01  4.509512344490E-01  4.276502334358E-01
  4.056284006248E-01  3.848039638140E-01  3.651009463969E-01  3.464487851828E-01
  3.287819664959E-01  3.120396804841E-01  2.961654934552E-01  2.811070379625E-01
  2.668157202841E-01  2.532464448696E-01  2.403573552722E-01  2.281095910386E-01
  2.164670599934E-01  2.053962253256E-01  1.948659068654E-01  1.848470959271E-01
  1.753127830836E-01  1.662377982404E-01  1.575986623748E-01  1.493734503171E-01
  1.415416639570E-01  1.340841152736E-01  1.269828186026E-01  1.202208915697E-01
  1.137824641422E-01  1.076525952662E-01  1.018171965817E-01  9.626296272826E-02
  9.097730777522E-02  8.594830733469E-02  8.116464593581E-02  7.661556926266E-02
  7.229084087663E-02  6.818070307055E-02  6.427584151745E-02  6.056735339939E-02
  5.704671872026E-02  5.370577452537E-02  5.053669176811E-02  4.753195458099E-02
  4.468434172450E-02  4.198691000265E-02  3.943297944850E-02  3.701612009704E-02
  3.473014017561E-02  3.256907555501E-02  3.052718031566E-02  2.859891829506E-02
  2.677895549299E-02  2.506215322144E-02  2.344356189578E-02  2.191841537307E-02
  2.048212575221E-02  1.913027855911E-02  1.785862824804E-02  1.666309395824E-02
  1.553975547175E-02  1.448484932575E-02  1.349476503947E-02  1.256604141846E-02
  1.169536291358E-02  1.087955600541E-02  1.011558559848E-02  9.400551410871E-03
  8.731684348851E-03  8.106342860304E-03  7.522009263396E-03  6.976286049956E-03
  6.466892165268E-03  5.991659267959E-03  5.548527975273E-03  5.135544100313E-03
  4.750854888779E-03  4.392705263428E-03  4.059434084922E-03  3.749470437924E-03
  3.461329951326E-03  3.193611161320E-03  2.944991925736E-03  2.714225897634E-03
  2.500139065621E-03  2.301626367778E-03  2.117648385434E-03  1.947228122319E-03
  1.789447873962E-03  1.643446191451E-03  1.508414942984E-03  1.383596475947E-03
  1.268280881580E-03  1.161803363659E-03  1.063541712014E-03  9.729138811376E-04
  8.893756736306E-04  8.124185277200E-04  7.415674076842E-04  6.763787956010E-04
  6.164387824981E-04  5.613612566719E-04  5.107861866745E-04  4.643779962365E-04
  4.218240282033E-04  3.828330943961E-04  3.471341081886E-04  3.144747964860E-04
  2.846204877273E-04  2.573529724862E-04  2.324694332290E-04  2.097814397899E-04
  1.891140071512E-04  1.703047121595E-04  1.532028658743E-04  1.376687383221E-04
  1.235728325270E-04  1.107952047930E-04  9.922482833384E-05  8.875899747369E-05
  7.930276977615E-05  7.076844360074E-05  6.307506872881E-05  5.614798784674E-05
  4.991840681858E-05  4.432299182372E-05  3.930349157401E-05  3.480638295938E-05
  3.078253859924E-05  2.718691489842E-05  2.397825931988E-05  2.111883569240E-05
  1.857416646804E-05  1.631279093326E-05  1.430603845738E-05  1.252781593431E-05
  1.095440863759E-05  9.564293765304E-06  8.337966001975E-06  7.257774467752E-06
  6.307770463801E-06  5.473565455865E-06  4.742198766993E-06  4.102014475662E-06
  3.542547037704E-06  3.054415170031E-06  2.629223551708E-06  2.259471913853E-06
  1.938471104526E-06  1.660265728613E-06  1.419562975919E-06  1.211667263524E-06
  1.032420331115E-06  8.781464406549E-07  7.456023443692E-07  6.319316978757E-07
  5.346236081859E-07  4.514750194395E-07  3.805566524769E-07  3.201822277294E-07
  2.688807143573E-07  2.253713620318E-07  1.885412851924E-07  1.574253829444E-07
  1.311883909331E-07  1.091088744800E-07  9.056498493596E-08  7.502181353424E-08
  6.202018897780E-08  5.116677651224E-08  4.212534729453E-08  3.460909743032E-08
  2.837390610113E-08  2.321243171632E-08  1.894895401105E-08  1.543487839684E-08
  1.254482682581E-08  1.017324669243E-08  8.231476159846E-09  6.645210576068E-09
  5.352320446660E-09  4.300976750625E-09  3.448044249208E-09  2.757707866997E-09
  2.200301245245E-09  1.751310203889E-09  1.390527126631E-09  1.101335228033E-09
  8.701042978599E-10  6.856818702190E-10  5.389658571451E-10  4.225465407305E-10
  3.304074564148E-10  2.576761430189E-10  2.004170017935E-10  1.554596150916E-10
  1.202568419544E-10  9.276784832672E-11  7.136195793309E-11  5.473983899232E-11
  4.186908368861E-11  3.193170229596E-11  2.428145167068E-11  1.840925708746E-11
  1.391527478423E-11  1.048638693563E-11  7.878127144336E-12  5.900208260362E-12
  4.404970096798E-12  3.278186502673E-12  2.431772850896E-12  1.798019396950E-12
  1.325045838934E-12  9.732300647626E-13  7.124114827342E-13  5.197081837678E-13
  3.778189120718E-13  2.737066415133E-13  1.975814936184E-13  1.421176526364E-13
  1.018525559121E-13  7.272756660573E-14  5.173807131447E-14  3.666790180904E-14
  2.588849950534E-14  1.820760391791E-14  1.275568148050E-14  8.901005974507E-15
  6.186406096121E-15  4.282336179997E-15  2.952194230411E-15  2.026793516837E-15
  1.385647637124E-15  9.433065845715E-16  6.394218275516E-16  4.315529337427E-16
  2.899812551850E-16  1.939866918157E-16  1.291863813936E-16  8.564078349312E-17
  5.651186266985E-17  3.711669818863E-17  2.426303182940E-17  1.578488688874E-17
  1.021958105673E-17  6.584064395474E-18  4.220827065419E-18  2.692251721360E-18
  1.708514805173E-18  0.000000000000E+00  0.000000000000E+00  0.000000000000E+00
  0.000000000000E+00
</data>
</radfunc>
</valence-charge>
<pseudocore-charge matching-radius="0.560974170770"
 number-of-continuous-derivatives="4">
<annotation model-charge-form="Teter function with specified parameters" />
<radfunc>
<data npts="290">
  1.830722757124E+02  1.830497394304E+02  1.829823783647E+02  1.828700218392E+02
  1.827138593964E+02  1.825086136591E+02  1.822471808055E+02  1.819480241828E+02
  1.816119179612E+02  1.812203170403E+02  1.807793702557E+02  1.803006377690E+02
  1.797228220687E+02  1.791202414172E+02  1.784105779426E+02  1.777031152458E+02
  1.768900420965E+02  1.761209073091E+02  1.752580810266E+02  1.742906835017E+02
  1.732067146685E+02  1.722467822529E+02  1.711964857040E+02  1.700479494254E+02
  1.687927436724E+02  1.674218744608E+02  1.659257807720E+02  1.647154638835E+02
  1.634245546593E+02  1.620484172055E+02  1.605822615141E+02  1.590211573855E+02
  1.573600524261E+02  1.555937947045E+02  1.537171606983E+02  1.517248892100E+02
  1.496117219694E+02  1.473724516731E+02  1.458070226748E+02  1.441818061121E+02
  1.424953739770E+02  1.407463523195E+02  1.389334327200E+02  1.370553847334E+02
  1.351110693359E+02  1.330994533979E+02  1.310196252007E+02  1.288708110004E+02
  1.266523926373E+02  1.243639261679E+02  1.220051614859E+02  1.195760628768E+02
  1.170768304289E+02  1.145079222007E+02  1.118700770129E+02  1.091643377075E+02
  1.063920746756E+02  1.035550094232E+02  1.006552378994E+02  9.769525326936E+01
  9.467796776678E+01  9.160673321196E+01  8.848535973172E+01  8.531813216610E+01
  8.210982359719E+01  7.886570538750E+01  7.559155307169E+01  7.394515720756E+01
  7.229364740723E+01  7.063788696815E+01  6.897876986105E+01  6.731722023239E+01
  6.565419179083E+01  6.399066707210E+01  6.232765657654E+01  6.066619777425E+01
  5.900735397234E+01  5.735221303980E+01  5.570188598528E+01  5.405750538382E+01
  5.242022364892E+01  5.079121114693E+01  4.917165415136E+01  4.756275263541E+01
  4.596571790177E+01  4.438177004974E+01  4.281213528051E+01  4.125804304243E+01
  3.972072301953E+01  3.820140196741E+01  3.670130040190E+01  3.522162914772E+01
  3.376358575505E+01  3.232835079415E+01  3.091708403925E+01  2.953092055477E+01
  2.817096669853E+01  2.683829605840E+01  2.553394534038E+01  2.425891022801E+01
  2.301414123464E+01  2.180053957179E+01  2.061895305844E+01  1.947017209769E+01
  1.835492574866E+01  1.727387792279E+01  1.622762373502E+01  1.521668604118E+01
  1.424151219364E+01  1.330247104814E+01  1.239985025452E+01  1.153385386443E+01
  1.070460028831E+01  9.912120633628E+00  9.156357454737E+00  8.437163943413E+00
  7.754303587046E+00  7.107450318875E+00  6.496189181752E+00  5.920017523429E+00
  5.378346737376E+00  4.870504558760E+00  4.395737920243E+00  3.953216366963E+00
  3.542036024293E+00  3.161224105858E+00  2.809743942907E+00  2.486500509458E+00
  2.190346410877E+00  1.920088296691E+00  1.674493651614E+00  1.452297912159E+00
  1.252211849817E+00  1.072929155881E+00  9.131341575597E-01  7.715095903977E-01
  6.467443481158E-01  5.375411281376E-01  4.426238892958E-01  3.607450376773E-01
  2.906922573718E-01  2.312949051220E-01  1.814298916008E-01  1.400269772980E-01
  1.060734177950E-01  7.861790150119E-02  5.677373266409E-02  3.972122351660E-02
  2.670927164946E-02  1.705611188447E-02  1.014924583703E-02  5.444566711353E-03
  2.464711349543E-03  7.966858089974E-04  8.882440173061E-05  4.715481184702E-05
  4.312532315341E-04  1.049683051091E-03  1.755118160406E-03  2.439257064387E-03
  3.027636534839E-03  3.474453237614E-03  3.757498590541E-03  3.873306022478E-03
  3.832600916773E-03  3.656132040246E-03  3.370949495963E-03  3.007178612107E-03
  2.595322201794E-03  2.164105889967E-03  1.738863352498E-03  1.340441031584E-03
  9.845858663825E-04  6.817654657562E-04  4.373585452010E-04  2.521448495936E-04
  1.230185556952E-04  4.384750572246E-05  6.402601404119E-06  1.287134022698E-06
  1.880439752507E-05  4.971310724570E-05  8.583324827175E-05  1.204792059644E-04
  1.487115123415E-04  1.674123809130E-04  1.752025433456E-04  1.722269886756E-04
  1.598444425977E-04  1.402594211548E-04  1.161363040031E-04  9.023221321740E-05
  6.507992931421E-05  4.274423566329E-05  2.466575093264E-05  1.159640111418E-05
  3.621149809395E-06  2.523473102758E-07  5.768339354987E-07  3.432279675284E-06
  7.588420341552E-06  1.191080997598E-05  1.548909217012E-05  1.771797088976E-05
  1.832620715433E-05  1.735615390043E-05  1.510265459141E-05  1.202479085820E-05
  8.646426495615E-06  5.461527750349E-06  2.857958285343E-06  1.069299284812E-06
  1.589466730185E-07  0.000000000000E+00  0.000000000000E+00  0.000000000000E+00
  0.000000000000E+00  0.000000000000E+00  0.000000000000E+00  0.000000000000E+00
  0.000000000000E+00  0.000000000000E+00  0.000000000000E+00  0.000000000000E+00
  0.000000000000E+00  0.000000000000E+00  0.000000000000E+00  0.000000000000E+00
  0.000000000000E+00  0.000000000000E+00  0.000000000000E+00  0.000000000000E+00
  0.000000000000E+00  0.000000000000E+00  0.000000000000E+00  0.000000000000E+00
  0.000000000000E+00  0.000000000000E+00  0.000000000000E+00  0.000000000000E+00
  0.000000000000E+00  0.000000000000E+00  0.000000000000E+00  0.000000000000E+00
  0.000000000000E+00  0.000000000000E+00  0.000000000000E+00  0.000000000000E+00
  0.000000000000E+00  0.000000000000E+00  0.000000000000E+00  0.000000000000E+00
  0.000000000000E+00  0.000000000000E+00  0.000000000000E+00  0.000000000000E+00
  0.000000000000E+00  0.000000000000E+00  0.000000000000E+00  0.000000000000E+00
  0.000000000000E+00  0.000000000000E+00  0.000000000000E+00  0.000000000000E+00
  0.000000000000E+00  0.000000000000E+00  0.000000000000E+00  0.000000000000E+00
  0.000000000000E+00  0.000000000000E+00  0.000000000000E+00  0.000000000000E+00
  0.000000000000E+00  0.000000000000E+00  0.000000000000E+00  0.000000000000E+00
  0.000000000000E+00  0.000000000000E+00  0.000000000000E+00  0.000000000000E+00
  0.000000000000E+00  0.000000000000E+00  0.000000000000E+00  0.000000000000E+00
  0.000000000000E+00  0.000000000000E+00  0.000000000000E+00  0.000000000000E+00
  0.000000000000E+00  0.000000000000E+00
</data>
</radfunc>
</pseudocore-charge>
<semilocal-potentials set="scalar_relativistic">
<slps n="4" l="s" rc="1.60261043273" eref="-4.39741124177">
<radfunc>
<data npts="290">
 -1.965991945500E+01 -1.966119142280E+01 -1.966499272475E+01 -1.967133119189E+01
 -1.968013675875E+01 -1.969170263809E+01 -1.970642264327E+01 -1.972325007553E+01
 -1.974213477252E+01 -1.976410935285E+01 -1.978881669943E+01 -1.981559783371E+01
 -1.984786170578E+01 -1.988143841703E+01 -1.992089048126E+01 -1.996012190323E+01
 -2.000508883547E+01 -2.004750690765E+01 -2.009495485610E+01 -2.014798110606E+01
 -2.020718123995E+01 -2.025941727444E+01 -2.031636667062E+01 -2.037839948035E+01
 -2.044590350093E+01 -2.051928263208E+01 -2.059895453490E+01 -2.066309542617E+01
 -2.073120003597E+01 -2.080345249470E+01 -2.088003634924E+01 -2.096113287979E+01
 -2.104691914626E+01 -2.113756574029E+01 -2.123323421922E+01 -2.133407419944E+01
 -2.144022008755E+01 -2.155178743066E+01 -2.162922440170E+01 -2.170913353278E+01
 -2.179152968319E+01 -2.187642101373E+01 -2.196380828113E+01 -2.205368409637E+01
 -2.214603214761E+01 -2.224082638882E+01 -2.233803019560E+01 -2.243759548991E+01
 -2.253946183622E+01 -2.264355551141E+01 -2.274978855183E+01 -2.285805778095E+01
 -2.296824382167E+01 -2.308021009774E+01 -2.319380182930E+01 -2.330884502804E+01
 -2.342514549768E+01 -2.354248784642E+01 -2.366063451801E+01 -2.377932484890E+01
 -2.389827415930E+01 -2.401717288645E+01 -2.413568576916E+01 -2.425345109299E+01
 -2.437008000629E+01 -2.448515591800E+01 -2.459823398873E+01 -2.465387699571E+01
 -2.470884072778E+01 -2.476306147526E+01 -2.481647370945E+01 -2.486901008140E+01
 -2.492060142297E+01 -2.497117675059E+01 -2.502066327168E+01 -2.506898639398E+01
 -2.511606973784E+01 -2.516183515167E+01 -2.520620273071E+01 -2.524909083917E+01
 -2.529041613611E+01 -2.533009360492E+01 -2.536803658679E+01 -2.540415681824E+01
 -2.543836447284E+01 -2.547056820727E+01 -2.550067521190E+01 -2.552859126605E+01
 -2.555422079792E+01 -2.557746694952E+01 -2.559823164659E+01 -2.561641567359E+01
 -2.563191875402E+01 -2.564463963596E+01 -2.565447618311E+01 -2.566132547129E+01
 -2.566508389047E+01 -2.566564725254E+01 -2.566291090473E+01 -2.565676984888E+01
 -2.564711886665E+01 -2.563385265072E+01 -2.561686594222E+01 -2.559605367452E+01
 -2.557131112355E+01 -2.554253406513E+01 -2.550961893932E+01 -2.547246302255E+01
 -2.543096460779E+01 -2.538502319341E+01 -2.533453968145E+01 -2.527941658611E+01
 -2.521955825328E+01 -2.515487109229E+01 -2.508526382103E+01 -2.501064772570E+01
 -2.493093693688E+01 -2.484604872336E+01 -2.475590380577E+01 -2.466042669200E+01
 -2.455954603663E+01 -2.445319502684E+01 -2.434131179765E+01 -2.422383987928E+01
 -2.410072868001E+01 -2.397193400797E+01 -2.383741863569E+01 -2.369715291152E+01
 -2.355111542210E+01 -2.339929371050E+01 -2.324168505466E+01 -2.307829731068E+01
 -2.290914982559E+01 -2.273427442372E+01 -2.255371647032E+01 -2.236753601509E+01
 -2.217580901701E+01 -2.197862865003E+01 -2.177610668690E+01 -2.156837495533E+01
 -2.135558685684E+01 -2.113791893412E+01 -2.091557246715E+01 -2.068877507145E+01
 -2.045778226457E+01 -2.022287895760E+01 -1.998438081889E+01 -1.974263544587E+01
 -1.949802326913E+01 -1.925095810015E+01 -1.900188722110E+01 -1.875129090282E+01