<?xml version="1.0" encoding="UTF-8" ?>
<psml version="1.1" energy_unit="hartree" length_unit="bohr"
 uuid="ebfba720-be62-11e7-6d8f-44b9fcec47f8"
 xmlns="http://esl.cecam.org/PSML/ns/1.1">
<provenance creator="ONCVPSP-3.3.0+psml-3.3.0-73 (scalar-relativistic)"
 date="2017-10-31">
<annotation action="semilocal-pseudopotential-generation"
 action-cont="projectors-generation" />
<input-file name="oncvpsp-input">
<![CDATA[# atsym z nc nv iexc psfile
Sc 21 3 4 4 upf
# n l f
1 0 2.0
2 0 2.0
2 1 6.0
3 0 2.0
3 1 6.0
3 2 1.0
4 0 2.0
# lmax
2
# l rc ep ncon nbas qcut
0 1.35 0.0 4 9 8.6
1 1.35 0.0 4 8 9.0
2 1.65 0.0 4 8 8.8
# lloc lpopt rc5 dvloc0
4 5 1.3 0.0
# l nproj debl
0 2 2.0
1 2 2.0
2 2 2.0
# icmod fcfact
3 5 1.25
# epsh1 epsh2 depsh
-12.0 12.0 0.02
# rlmax drl
6.0 0.01
 0
]]>
</input-file>
</provenance>
<pseudo-atom-spec atomic-label="Sc" atomic-number="21" z-pseudo="11"
 flavor="Hamann&apos;s oncvpsp" relativity="scalar" spin-dft="no"
 core-corrections="yes">
<annotation pseudo-energy="-46.6072765851" />
<exchange-correlation>
<annotation oncvpsp-xc-code="4" oncvpsp-xc-type="GGA -- Perdew-Burke-Ernzerhof" />
<libxc-info number-of-functionals="2">
<functional name="Perdew, Burke &amp; Ernzerhof (GGA)" type="exchange" id="101" />
<functional name="Perdew, Burke &amp; Ernzerhof (GGA)" type="correlation"
 id="130" />
</libxc-info>
</exchange-correlation>
<valence-configuration total-valence-charge="11">
<shell n="3" l="s" occupation="2" />
<shell n="3" l="p" occupation="6" />
<shell n="3" l="d" occupation="1" />
<shell n="4" l="s" occupation="2" />
</valence-configuration>
</pseudo-atom-spec>
<grid npts="457">
<annotation type="sampled from oncvpsp log grid"
 recipe="r(i:1..N) = r1*exp(a*(i-1)) + r=0; resampled"
 recipe-cont="r1: scale; a: step" scale="0.238095238095E-04"
 step="0.119285708653E-01" delta="0.500000000000E-02" rmax="44.1744182858" />
<grid-data>
  0.000000000000E+00  5.044299027886E-03  1.007559144583E-02  1.511499382701E-02
  2.012520320902E-02  2.524468824449E-02  3.055330615518E-02  3.567835927215E-02
  4.068089620927E-02  4.583483127647E-02  5.102937504002E-02  5.613895828010E-02
  6.176016528329E-02  6.713856230878E-02  7.298533817411E-02  7.840047603693E-02
  8.421738936325E-02  8.939316979483E-02  9.488704015153E-02  1.007185494080E-01
  1.069084479677E-01  1.121331635373E-01  1.176132158300E-01  1.233610833896E-01
  1.293898545982E-01  1.357132574790E-01  1.423456909567E-01  1.475318751429E-01
  1.529070113532E-01  1.584779838142E-01  1.642519275704E-01  1.702362376230E-01
  1.764385784003E-01  1.828668935745E-01  1.895294162352E-01  1.964346794343E-01
  2.035915271145E-01  2.110091254365E-01  2.161037297611E-01  2.213213382124E-01
  2.266649206022E-01  2.321375184453E-01  2.377422466906E-01  2.434822954947E-01
  2.493609320371E-01  2.553815023802E-01  2.615474333737E-01  2.678622346051E-01
  2.743295003974E-01  2.809529118550E-01  2.877362389588E-01  2.946833427122E-01
  3.017981773387E-01  3.090847925323E-01  3.165473357632E-01  3.241900546379E-01
  3.320172993171E-01  3.400335249918E-01  3.482432944192E-01  3.566512805196E-01
  3.652622690365E-01  3.740811612601E-01  3.831129768176E-01  3.923628565299E-01
  4.018360653379E-01  4.115379952994E-01  4.214741686579E-01  4.265318586818E-01
  4.316502409860E-01  4.368300438779E-01  4.420720044044E-01  4.473768684572E-01
  4.527453908787E-01  4.581783355693E-01  4.636764755961E-01  4.692405933033E-01
  4.748714804229E-01  4.805699381880E-01  4.863367774462E-01  4.921728187756E-01
  4.980788926009E-01  5.040558393121E-01  5.101045093838E-01  5.162257634964E-01
  5.224204726584E-01  5.286895183303E-01  5.350337925503E-01  5.414541980609E-01
  5.479516484376E-01  5.545270682189E-01  5.611813930375E-01  5.679155697539E-01
  5.747305565910E-01  5.816273232701E-01  5.886068511493E-01  5.956701333631E-01
  6.028181749635E-01  6.100519930630E-01  6.173726169798E-01  6.247810883835E-01
  6.322784614441E-01  6.398658029815E-01  6.475441926172E-01  6.553147229287E-01
  6.631784996038E-01  6.711366415990E-01  6.791902812982E-01  6.873405646738E-01
  6.955886514499E-01  7.039357152673E-01  7.123829438505E-01  7.209315391767E-01
  7.295827176468E-01  7.383377102586E-01  7.471977627817E-01  7.561641359351E-01
  7.652381055663E-01  7.744209628331E-01  7.837140143871E-01  7.931185825597E-01
  8.026360055504E-01  8.122676376171E-01  8.220148492685E-01  8.318790274597E-01
  8.418615757892E-01  8.519639146987E-01  8.621874816750E-01  8.725337314552E-01
  8.830041362326E-01  8.936001858674E-01  9.043233880978E-01  9.151752687550E-01
  9.261573719800E-01  9.372712604438E-01  9.485185155691E-01  9.599007377560E-01
  9.714195466090E-01  9.830765811683E-01  9.948735001424E-01  1.006811982144E+00
  1.018893725930E+00  1.031120450641E+00  1.043493896049E+00  1.056015822801E+00
  1.068688012675E+00  1.081512268827E+00  1.094490416053E+00  1.107624301046E+00
  1.120915792658E+00  1.134366782170E+00  1.147979183556E+00  1.161754933759E+00
  1.175695992964E+00  1.189804344879E+00  1.204081997018E+00  1.218530980982E+00
  1.233153352754E+00  1.247951192987E+00  1.262926607303E+00  1.278081726590E+00
  1.293418707309E+00  1.308939731797E+00  1.324647008579E+00  1.340542772682E+00
  1.356629285954E+00  1.372908837385E+00  1.389383743434E+00  1.406056348355E+00
  1.422929024535E+00  1.440004172830E+00  1.457284222904E+00  1.474771633579E+00
  1.492468893182E+00  1.510378519900E+00  1.528503062139E+00  1.546845098884E+00
  1.565407240071E+00  1.584192126952E+00  1.603202432475E+00  1.622440861665E+00
  1.641910152005E+00  1.661613073829E+00  1.681552430715E+00  1.701731059883E+00
  1.722151832602E+00  1.742817654593E+00  1.763731466448E+00  1.784896244046E+00
  1.806314998974E+00  1.827990778962E+00  1.849926668309E+00  1.872125788329E+00
  1.894591297789E+00  1.917326393363E+00  1.940334310083E+00  1.963618321804E+00
  1.987181741666E+00  2.011027922566E+00  2.035160257636E+00  2.059582180728E+00
  2.084297166897E+00  2.109308732900E+00  2.134620437694E+00  2.160235882947E+00
  2.186158713542E+00  2.212392618105E+00  2.238941329522E+00  2.265808625476E+00
  2.292998328982E+00  2.320514308930E+00  2.348360480637E+00  2.376540806404E+00
  2.405059296081E+00  2.433920007634E+00  2.463127047726E+00  2.492684572298E+00
  2.522596787166E+00  2.552867948612E+00  2.583502363995E+00  2.614504392363E+00
  2.645878445072E+00  2.677628986413E+00  2.709760534250E+00  2.742277660661E+00
  2.775184992588E+00  2.808487212499E+00  2.842189059049E+00  2.876295327758E+00
  2.910810871691E+00  2.945740602151E+00  2.981089489377E+00  3.016862563250E+00
  3.053064914009E+00  3.089701692977E+00  3.126778113293E+00  3.164299450652E+00
  3.202271044060E+00  3.240698296589E+00  3.279586676148E+00  3.318941716262E+00
  3.358769016857E+00  3.399074245059E+00  3.439863136000E+00  3.481141493632E+00
  3.522915191555E+00  3.565190173854E+00  3.607972455940E+00  3.651268125411E+00
  3.695083342916E+00  3.739424343031E+00  3.784297435148E+00  3.829709004370E+00
  3.875665512422E+00  3.922173498571E+00  3.969239580554E+00  4.016870455521E+00
  4.065072900987E+00  4.113853775799E+00  4.163220021108E+00  4.213178661361E+00
  4.263736805298E+00  4.314901646961E+00  4.366680466725E+00  4.419080632326E+00
  4.472109599914E+00  4.525774915112E+00  4.580084214094E+00  4.635045224663E+00
  4.690665767359E+00  4.746953756567E+00  4.803917201646E+00  4.861564208066E+00
  4.919902978563E+00  4.978941814305E+00  5.038689116077E+00  5.099153385470E+00
  5.160343226096E+00  5.222267344809E+00  5.284934552946E+00  5.348353767582E+00
  5.412534012793E+00  5.477484420946E+00  5.543214233998E+00  5.609732804806E+00
  5.677049598463E+00  5.745174193645E+00  5.814116283969E+00  5.883885679376E+00
  5.954492307529E+00  6.025946215219E+00  6.098257569802E+00  6.171436660639E+00
  6.245493900567E+00  6.320439827374E+00  6.396285105302E+00  6.473040526566E+00
  6.550717012885E+00  6.629325617039E+00  6.708877524444E+00  6.789384054737E+00
  6.870856663394E+00  6.953306943355E+00  7.036746626675E+00  7.121187586195E+00
  7.206641837229E+00  7.293121539276E+00  7.380638997747E+00  7.469206665720E+00
  7.558837145709E+00  7.649543191458E+00  7.741337709755E+00  7.834233762272E+00
  7.928244567419E+00  8.023383502228E+00  8.119664104255E+00  8.217100073506E+00
  8.315705274388E+00  8.415493737681E+00  8.516479662533E+00  8.618677418483E+00
  8.722101547505E+00  8.826766766075E+00  8.932687967268E+00  9.039880222875E+00
  9.148358785550E+00  9.258139090977E+00  9.369236760068E+00  9.481667601189E+00
  9.595447612403E+00  9.710592983752E+00  9.827120099557E+00  9.945045540752E+00
  1.006438608724E+01  1.018515872029E+01  1.030738062493E+01  1.043106919243E+01
  1.055624202274E+01  1.068291692701E+01  1.081111193014E+01  1.094084527330E+01
  1.107213541658E+01  1.120500104158E+01  1.133946105408E+01  1.147553458672E+01
  1.161324100177E+01  1.175259989379E+01  1.189363109251E+01  1.203635466562E+01
  1.218079092161E+01  1.232696041267E+01  1.247488393762E+01  1.262458254487E+01
  1.277607753541E+01  1.292939046584E+01  1.308454315143E+01  1.324155766924E+01
  1.340045636127E+01  1.356126183761E+01  1.372399697966E+01  1.388868494342E+01
  1.405534916274E+01  1.422401335269E+01  1.439470151292E+01  1.456743793108E+01
  1.474224718625E+01  1.491915415249E+01  1.509818400232E+01  1.527936221034E+01
  1.546271455687E+01  1.564826713155E+01  1.583604633713E+01  1.602607889317E+01
  1.621839183989E+01  1.641301254197E+01  1.660996869247E+01  1.680928831678E+01
  1.701099977659E+01  1.721513177390E+01  1.742171335519E+01  1.763077391545E+01
  1.784234320244E+01  1.805645132087E+01  1.827312873672E+01  1.849240628156E+01
  1.871431515694E+01  1.893888693882E+01  1.916615358209E+01  1.939614742507E+01
  1.962890119417E+01  1.986444800850E+01  2.010282138461E+01  2.034405524122E+01
  2.058818390411E+01  2.083524211096E+01  2.108526501630E+01  2.133828819649E+01
  2.159434765485E+01  2.185347982671E+01  2.211572158463E+01  2.238111024364E+01
  2.264968356657E+01  2.292147976937E+01  2.319653752660E+01  2.347489597692E+01
  2.375659472864E+01  2.404167386538E+01  2.433017395177E+01  2.462213603919E+01
  2.491760167166E+01  2.521661289172E+01  2.551921224642E+01  2.582544279338E+01
  2.613534810690E+01  2.644897228418E+01  2.676635995159E+01  2.708755627101E+01
  2.741260694626E+01  2.774155822962E+01  2.807445692837E+01  2.841135041151E+01
  2.875228661645E+01  2.909731405585E+01  2.944648182452E+01  2.979983960641E+01
  3.015743768169E+01  3.051932693387E+01  3.088555885708E+01  3.125618556336E+01
  3.163125979012E+01  3.201083490760E+01  3.239496492650E+01  3.278370450561E+01
  3.317710895968E+01  3.357523426720E+01  3.397813707840E+01  3.438587472334E+01
  3.479850522002E+01  3.521608728266E+01  3.563868033006E+01  3.606634449402E+01
  3.649914062795E+01  3.693713031548E+01  3.738037587927E+01  3.782894038982E+01
  3.828288767450E+01  3.874228232659E+01  3.920718971451E+01  3.967767599108E+01
  4.015380810298E+01  4.063565380021E+01  4.112328164581E+01  4.161676102556E+01
  4.211616215787E+01  4.262155610377E+01  4.313301477701E+01  4.365061095433E+01
  4.417441828579E+01
</grid-data>
</grid>
<valence-charge total-charge="11" is-unscreening-charge="yes"
 rescaled-to-z-pseudo="no">
<radfunc>
<data npts="457">
  8.564898067406E-01  8.579859225050E-01  8.624582623927E-01  8.699194948666E-01
  8.802928205781E-01  8.939320353834E-01  9.113140361029E-01  9.312165378928E-01
  9.535929699337E-01  9.796849783008E-01  1.009091907390E+00  1.041051238704E+00
  1.079670217808E+00  1.119996882390E+00  1.167558645789E+00  1.215046992627E+00
  1.269715842223E+00  1.321520437633E+00  1.379739826866E+00  1.445146376931E+00
  1.518599302046E+00  1.583792756516E+00  1.655280057515E+00  1.733641624570E+00
  1.819505354659E+00  1.913549091531E+00  2.016502850481E+00  2.100034947084E+00
  2.189369970400E+00  2.284876764771E+00  2.386941863318E+00  2.495969282382E+00
  2.612380064843E+00  2.736611518244E+00  2.869116084800E+00  3.010359770337E+00
  3.160820048049E+00  3.320983140461E+00  3.433391620354E+00  3.550476980312E+00
  3.672384848117E+00  3.799259623042E+00  3.931243600024E+00  4.068475977151E+00
  4.211091735418E+00  4.359220379024E+00  4.512984523916E+00  4.672498321746E+00
  4.837865705983E+00  5.009178446637E+00  5.186513999915E+00  5.369933139246E+00
  5.559477354514E+00  5.755166007057E+00  5.956993229206E+00  6.164924558815E+00
  6.378893301607E+00  6.598796617187E+00  6.824491328620E+00  7.055789460342E+00
  7.292453515414E+00  7.534191510497E+00  7.780651795933E+00  8.031417698850E+00
  8.286002039576E+00  8.543841585905E+00  8.804291525977E+00  8.935270247518E+00
  9.066620058804E+00  9.198235043591E+00  9.330003221665E+00  9.461806410314E+00
  9.593520095660E+00  9.725013315350E+00  9.856148554250E+00  9.986781654862E+00
  1.011676174430E+01  1.024593117972E+01  1.037412551427E+01  1.050117348555E+01
  1.062689702890E+01  1.075111131766E+01  1.087362483279E+01  1.099423946410E+01
  1.111275064562E+01  1.122894752749E+01  1.134261318669E+01  1.145352487913E+01
  1.156145433540E+01  1.166616810242E+01  1.176742793321E+01  1.186499122680E+01
  1.195861152011E+01  1.204803903355E+01  1.213302127159E+01  1.221330367953E+01
  1.228863035731E+01  1.235874483048E+01  1.242339087870E+01  1.248231342087E+01
  1.253525945617E+01  1.258197905924E+01  1.262222642746E+01  1.265576097730E+01
  1.268234848646E+01  1.270176227744E+01  1.271378443756E+01  1.271820706994E+01
  1.271483356878E+01  1.270347991192E+01  1.268397596273E+01  1.265616677271E+01
  1.261991387560E+01  1.257509656319E+01  1.252161313231E+01  1.245938209239E+01
  1.238834332225E+01  1.230845916490E+01  1.221971544870E+01  1.212212242344E+01
  1.201571560008E+01  1.190055648307E+01  1.177673318463E+01  1.164436091117E+01
  1.150358231243E+01  1.135456768515E+01  1.119751502379E+01  1.103264991211E+01
  1.086022525047E+01  1.068052081509E+01  1.049384264669E+01  1.030052226738E+01
  1.010091572580E+01  9.895402471981E+00  9.684384064530E+00  9.468282713859E+00
  9.247539666454E+00  9.022613436006E+00  8.793977888297E+00  8.562120187565E+00
  8.327538612939E+00  8.090740254381E+00  7.852238598414E+00  7.612551014877E+00
  7.372196156987E+00  7.131691288185E+00  6.891549550666E+00  6.652277192083E+00
  6.414370768803E+00  6.178314346163E+00  5.944576718459E+00  5.713608673858E+00
  5.485840331875E+00  5.261678583527E+00  5.041504666502E+00  4.825671909544E+00
  4.614503681610E+00  4.408291581963E+00  4.207293907062E+00  4.011734428779E+00
  3.821801515905E+00  3.637647627128E+00  3.459389198557E+00  3.287106942626E+00
  3.120846568129E+00  2.960620795076E+00  2.806415333109E+00  2.658197141979E+00
  2.515916561062E+00  2.379507757482E+00  2.248890479279E+00  2.123971341348E+00
  2.004645186094E+00  1.890796423355E+00  1.782300348122E+00  1.679024425804E+00
  1.580829534922E+00  1.487571156820E+00  1.399100501978E+00  1.315265562719E+00
  1.235912082658E+00  1.160884434105E+00  1.090026280350E+00  1.023180671952E+00
  9.601898566580E-01  9.008958018365E-01  8.451409725267E-01  7.927688373071E-01
  7.436244132289E-01  6.975547526100E-01  6.544093865116E-01  6.140407243893E-01
  5.763044107404E-01  5.410596399632E-01  5.081694305588E-01  4.775008601447E-01
  4.489252627944E-01  4.223183903331E-01  3.975605392975E-01  3.745366453310E-01
  3.531363468300E-01  3.332540196993E-01  3.147887851104E-01  2.976444922048E-01
  2.817296777452E-01  2.669575047997E-01  2.532456826555E-01  2.405163702782E-01
  2.286960657714E-01  2.177154844032E-01  2.075094278378E-01  1.980166471959E-01
  1.891797024403E-01  1.809448203174E-01  1.732617526829E-01  1.660836365264E-01
  1.593668564436E-01  1.530709097470E-01  1.471582739501E-01  1.415942760486E-01
  1.363469629034E-01  1.313869720821E-01  1.266874027165E-01  1.222236862078E-01
  1.179734569153E-01  1.139164232215E-01  1.100342395667E-01  1.063103801549E-01
  1.027300150662E-01  9.927988947475E-02  9.594820659314E-02  9.272451485411E-02
  8.959959972633E-02  8.656538044391E-02  8.361481182654E-02  8.074179127660E-02
  7.794107096571E-02  7.520817516462E-02  7.253932262481E-02  6.993135388702E-02
  6.738166336770E-02  6.488813605785E-02  6.244908865791E-02  6.006321496560E-02
  5.772953533075E-02  5.544734998961E-02  5.321619609225E-02  5.103580823851E-02
  4.890608234085E-02  4.682704263649E-02  4.479881167551E-02  4.282158311710E-02
  4.089559717179E-02  3.902111853459E-02  3.719841666074E-02  3.542774824437E-02
  3.370934176857E-02  3.204338400427E-02  3.043000834476E-02  2.886928487116E-02
  2.736121205326E-02  2.590570999730E-02  2.450261515918E-02  2.315167644649E-02
  2.185255263616E-02  2.060481103615E-02  1.940792731911E-02  1.826128645408E-02
  1.716418465896E-02  1.611583229340E-02  1.511535759993E-02  1.416181120686E-02
  1.325417129681E-02  1.239134933727E-02  1.157219627181E-02  1.079550906827E-02
  1.006003752105E-02  9.364491207490E-03  8.707546502114E-03  8.087853558949E-03
  7.504043178840E-03  6.954733487227E-03  6.438536356742E-03  5.954063518545E-03
  5.499932315985E-03  5.074771063814E-03  4.677223985504E-03  4.305955710055E-03
  3.959655317912E-03  3.637039933060E-03  3.336857865049E-03  3.057891310501E-03
  2.798958628601E-03  2.558916209210E-03  2.336659955491E-03  2.131126405510E-03
  1.941293519055E-03  1.766181157098E-03  1.604851281909E-03  1.456407905860E-03
  1.319996816603E-03  1.194805105497E-03  1.080060525068E-03  9.750306999221E-04
  8.790222139456E-04  7.913795949327E-04  7.114842159465E-04  6.387531308689E-04
  5.726378597331E-04  5.126231376070E-04  4.582256390508E-04  4.089926885294E-04
  3.645009656401E-04  3.243552126504E-04  2.881869506162E-04  2.556532092959E-04
  2.264352751664E-04  2.002374610911E-04  1.767859005663E-04  1.558273689709E-04
  1.371281338453E-04  1.204728359111E-04  1.056634022988E-04  9.251799325526E-05
  8.086998344148E-05  7.056697879727E-05  6.146986981983E-05  5.345192198364E-05
  4.639790390238E-05  4.020325370201E-05  3.477328393460E-05  3.002242521367E-05
  2.587350859670E-05  2.225708657949E-05  1.911079240408E-05  1.637873721954E-05
  1.401094447592E-05  1.196282077988E-05  1.019466229777E-05  8.671195661480E-06
  7.361152215190E-06  6.236874339690E-06  5.273952505324E-06  4.450891635819E-06
  3.748805313187E-06  3.151136318213E-06  2.643401981166E-06  2.212962812317E-06
  1.848812890484E-06  1.541390508910E-06  1.282407609815E-06  1.064696580598E-06
  8.820730343367E-07  7.292132535626E-07  6.015450378479E-07  4.951507612128E-07
  4.066815135298E-07  3.332812698513E-07  2.725201019013E-07  2.223355159884E-07
  1.809810705316E-07  1.469814936155E-07  1.190935859599E-07  9.627225697758E-08
  7.764110087874E-08  6.246697580862E-08  5.013810162983E-08  4.014524108522E-08
  3.206557467408E-08  2.554892167317E-08  2.030599839878E-08  1.609844014368E-08
  1.273034536600E-08  1.004112981079E-08  7.899504478707E-09  6.198414902536E-09
  4.850800235634E-09  3.786049387602E-09  2.947048046642E-09  2.287725105890E-09
  1.771019718948E-09  1.367202910209E-09  1.052491080427E-09  7.269242050716E-10
  5.551632604131E-10  4.227242823167E-10  3.209105376940E-10  2.428769246942E-10
  1.832521125952E-10  1.378341775560E-10  1.033462092240E-10  7.724069368279E-11
  5.754343872801E-11  4.272945038667E-11  3.162454147326E-11  2.332759438939E-11
  1.714934660753E-11  1.256434886303E-11  9.173389309850E-12  6.674204330120E-12
  4.838727580864E-12  3.495479582793E-12  2.515984561379E-12  1.804331015431E-12
  1.289177411428E-12  9.176526694816E-13  6.507195303757E-13  4.596631151710E-13
  3.234416640790E-13  2.266953928322E-13  1.582557594741E-13  1.100337386904E-13
  7.619401919730E-14  5.254403917565E-14  3.608379519628E-14  2.467547385476E-14
  1.680201685711E-14  1.139141737709E-14  7.689393423544E-15  5.167513557770E-15
  3.457190954971E-15  2.302470118895E-15  1.526405534456E-15  1.007226791489E-15
  6.615182553439E-16  4.324034470982E-16  2.812836133968E-16  1.820885362586E-16
  1.172946682007E-16  7.518058879335E-17  4.794451420112E-17  3.041946277730E-17
  1.920068651976E-17  1.205612369030E-17  7.530040230333E-18  4.677976181650E-18
  2.890426015625E-18  1.776153707326E-18  1.085389032933E-18  6.595496809954E-19
  3.985083850147E-19  2.394007920846E-19  1.429821488920E-19  8.489375792518E-20
  5.010448640245E-20  2.939363041872E-20  1.713854943949E-20  9.931324697614E-21
  5.719002084897E-21  3.272506588301E-21  1.860607652556E-21  1.051015963135E-21
  5.898075665121E-22  0.000000000000E+00  0.000000000000E+00  0.000000000000E+00
  0.000000000000E+00
</data>
</radfunc>
</valence-charge>
<pseudocore-charge matching-radius="0.574730556591"
 number-of-continuous-derivatives="4">
<annotation model-charge-form="Teter function with specified parameters" />
<radfunc>
<data npts="290">
  6.342797807373E+01  6.341809898646E+01  6.338857214374E+01  6.333932813770E+01
  6.327089720631E+01  6.318097990120E+01  6.306648363445E+01  6.293551605570E+01
  6.278843616344E+01  6.261715714055E+01  6.242440524990E+01  6.221526833461E+01
  6.196303024877E+01  6.170019611159E+01  6.139093649921E+01  6.108294048165E+01
  6.072934345222E+01  6.039522697743E+01  6.002084271135E+01  5.960163030628E+01
  5.913259143497E+01  5.871783420944E+01  5.826469355446E+01  5.776996185561E+01
  5.723023565152E+01  5.664191971626E+01  5.600123569777E+01  5.548398743375E+01
  5.493334385497E+01  5.434754369636E+01  5.372479379167E+01  5.306327932574E+01
  5.236117622503E+01  5.161666593840E+01  5.082795287064E+01  4.999328473592E+01
  4.911097609773E+01  4.817943535227E+01  4.753032638133E+01  4.685828419407E+01
  4.616294815285E+01  4.544399930244E+01  4.470116608417E+01  4.393423041185E+01
  4.314303410321E+01  4.232748565478E+01  4.148756734170E+01  4.062334261659E+01
  3.973496377284E+01  3.882267982821E+01  3.788684457390E+01  3.692792472234E+01
  3.594650807370E+01  3.494331160739E+01  3.391918938916E+01  3.287514016854E+01
  3.181231452448E+01  3.073202139951E+01  2.963573384538E+01  2.852509378560E+01
  2.740191558381E+01  2.626818819159E+01  2.512607563596E+01  2.397791559660E+01
  2.282621581635E+01  2.167364808686E+01  2.052303955600E+01  1.994939315980E+01
  1.937736111560E+01  1.880733482503E+01  1.823971264873E+01  1.767489926064E+01
  1.711330494689E+01  1.655534484879E+01  1.600143814939E+01  1.545200720368E+01
  1.490747661266E+01  1.436827224186E+01  1.383482018540E+01  1.330754567686E+01
  1.278687194899E+01  1.227321904441E+01  1.176700258024E+01  1.126863246987E+01
  1.077851160587E+01  1.029703450839E+01  9.824585944038E+00  9.361539520887E+00
  8.908256265782E+00  8.465083190699E+00  8.032351855592E+00  7.610376935654E+00
  7.199454801550E+00  6.799862121694E+00  6.411854496165E+00  6.035665132316E+00
  5.671503572552E+00  5.319554485105E+00  4.979976528917E+00  4.652901303932E+00
  4.338432398214E+00  4.036644543287E+00  3.747582888990E+00  3.471262408885E+00
  3.207667446874E+00  2.956751415148E+00  2.718436652913E+00  2.492614454494E+00
  2.279145274391E+00  2.077859115718E+00  1.888556107057E+00  1.711007271303E+00
  1.544955488345E+00  1.390116651627E+00  1.246181016666E+00  1.112814737464E+00
  9.896615845996E-01  8.763448364378E-01  7.724693325957E-01  6.776236763949E-01
  5.913825706906E-01  5.133092691479E-01  4.429581228177E-01  3.798771997876E-01
  3.236109537843E-01  2.737029159456E-01  2.296983826038E-01  1.911470708739E-01
  1.576057131757E-01  1.286405615714E-01  1.038297730129E-01  8.276564729804E-02
  6.505669075354E-02  5.032948041090E-02  3.823030572180E-02  2.842656766491E-02
  2.060791840146E-02  1.448712840697E-02  9.800672189375E-03  6.309028231528E-03
  3.796693587330E-03  2.071918519337E-03  9.661715828370E-04  3.333505178387E-04
  4.875907894447E-05  7.874381701806E-06  1.249333400266E-04  3.313701835299E-04
  5.741397552225E-04  8.139631916942E-04  1.023533590516E-03  1.185719307813E-03
  1.291801565249E-03  1.339781074660E-03  1.332785439828E-03  1.277605234960E-03
  1.183381992141E-03  1.060465995289E-03  9.194559489578E-04  7.704264678639E-04
  6.223431397557E-04  4.826588855899E-04  3.570797150118E-04  2.494829816717E-04
  1.619670914767E-04  9.500848505258E-05  4.769973782222E-05  1.804187872049E-05
  3.264542738297E-06  1.492994269969E-07  5.334329461210E-06  1.558238181150E-05
  2.799840699318E-05  4.018815531618E-05  5.035405267991E-05  5.732950993094E-05
  6.055718548985E-05  6.002033712743E-05  5.613905190931E-05  4.964468771683E-05
  4.144623268209E-05  3.250151787999E-05  2.370442159678E-05  1.579658103413E-05
  9.308947268811E-06  4.535094393479E-06  1.534853809923E-06  1.639056393400E-07
  1.226923631908E-07  1.016623605855E-06  2.419119644030E-06  3.929592435727E-06
  5.219876845726E-06  6.064695294400E-06  6.354187318297E-06  6.089042629728E-06
  5.361022735825E-06  4.323362899531E-06  3.156511530962E-06  2.034791713956E-06
  1.098882771668E-06  4.376587792985E-07  8.112287015785E-08  0.000000000000E+00
  0.000000000000E+00  0.000000000000E+00  0.000000000000E+00  0.000000000000E+00
  0.000000000000E+00  0.000000000000E+00  0.000000000000E+00  0.000000000000E+00
  0.000000000000E+00  0.000000000000E+00  0.000000000000E+00  0.000000000000E+00
  0.000000000000E+00  0.000000000000E+00  0.000000000000E+00  0.000000000000E+00
  0.000000000000E+00  0.000000000000E+00  0.000000000000E+00  0.000000000000E+00
  0.000000000000E+00  0.000000000000E+00  0.000000000000E+00  0.000000000000E+00
  0.000000000000E+00  0.000000000000E+00  0.000000000000E+00  0.000000000000E+00
  0.000000000000E+00  0.000000000000E+00  0.000000000000E+00  0.000000000000E+00
  0.000000000000E+00  0.000000000000E+00  0.000000000000E+00  0.000000000000E+00
  0.000000000000E+00  0.000000000000E+00  0.000000000000E+00  0.000000000000E+00
  0.000000000000E+00  0.000000000000E+00  0.000000000000E+00  0.000000000000E+00
  0.000000000000E+00  0.000000000000E+00  0.000000000000E+00  0.000000000000E+00
  0.000000000000E+00  0.000000000000E+00  0.000000000000E+00  0.000000000000E+00
  0.000000000000E+00  0.000000000000E+00  0.000000000000E+00  0.000000000000E+00
  0.000000000000E+00  0.000000000000E+00  0.000000000000E+00  0.000000000000E+00
  0.000000000000E+00  0.000000000000E+00  0.000000000000E+00  0.000000000000E+00
  0.000000000000E+00  0.000000000000E+00  0.000000000000E+00  0.000000000000E+00
  0.000000000000E+00  0.000000000000E+00  0.000000000000E+00  0.000000000000E+00
  0.000000000000E+00  0.000000000000E+00  0.000000000000E+00  0.000000000000E+00
  0.000000000000E+00  0.000000000000E+00  0.000000000000E+00  0.000000000000E+00
  0.000000000000E+00  0.000000000000E+00  0.000000000000E+00  0.000000000000E+00
  0.000000000000E+00  0.000000000000E+00
</data>
</radfunc>
</pseudocore-charge>
<semilocal-potentials set="scalar_relativistic">
<slps n="3" l="s" rc="1.35662928595" eref="-2.02264829935">
<radfunc>
<data npts="290">
  7.669336230656E+00  7.663695833253E+00  7.646849819131E+00  7.618784296738E+00
  7.579844396299E+00  7.528784917605E+00  7.463943495353E+00  7.390013578204E+00
  7.307291463709E+00  7.211360612982E+00  7.103916261622E+00  6.987948361307E+00
  6.848917426112E+00  6.705009998080E+00  6.536929311570E+00  6.370858027925E+00
  6.181804997638E+00  6.004724039744E+00  5.808072747739E+00  5.590063296386E+00
  5.348836716388E+00  5.137857476100E+00  4.909809545333E+00  4.663707064039E+00
  4.398580785203E+00  4.113494293218E+00  3.807562625742E+00  3.563942085123E+00
  3.307828539141E+00  3.038949561252E+00  2.757075143690E+00  2.462024183772E+00
  2.153671126874E+00  1.831952666378E+00  1.496874384474E+00  1.148517202613E+00
  7.870434974321E-01  4.127027284411E-01  1.561585796342E-01 -1.058296485102E-01
 -3.731176696174E-01 -6.455413649513E-01 -9.229165268030E-01 -1.205038707667E+00
 -1.491683180189E+00 -1.782605011233E+00 -2.077539251583E+00 -2.376201240817E+00
 -2.678287024487E+00 -2.983473878414E+00 -3.291420932114E+00 -3.601769880775E+00
 -3.914145772260E+00 -4.228157852816E+00 -4.543400452442E+00 -4.859453888148E+00
 -5.175885360959E+00 -5.492249820364E+00 -5.808090768166E+00 -6.122940972488E+00
 -6.436323062003E+00 -6.747749970397E+00 -7.056725202462E+00 -7.362742894814E+00
 -7.665287647909E+00 -7.963834111574E+00 -8.257846314213E+00 -8.402981449524E+00
 -8.546776737660E+00 -8.689161744194E+00 -8.830065157017E+00 -8.969414740604E+00
 -9.107137289300E+00 -9.243158580576E+00 -9.377403329693E+00 -9.509795147279E+00
 -9.640256501740E+00 -9.768708688767E+00 -9.895071810465E+00 -1.001926476712E+01
 -1.014120526478E+01 -1.026080984245E+01 -1.037799392252E+01 -1.049267188863E+01
 -1.060475719490E+01 -1.071416251031E+01 -1.082079990164E+01 -1.092458105739E+01
 -1.102541755433E+01 -1.112322116640E+01 -1.121790421400E+01 -1.130937994944E+01
 -1.139756297169E+01 -1.148236966082E+01 -1.156371862009E+01 -1.164153111117E+01
 -1.171573146643E+01 -1.178624746142E+01 -1.185301063138E+01 -1.191595651739E+01
 -1.197502483166E+01 -1.203015953611E+01 -1.208130883502E+01 -1.212842508912E+01
 -1.217146466544E+01 -1.221038774340E+01 -1.224515810192E+01 -1.227574291494E+01
 -1.230211258204E+01 -1.232424061848E+01 -1.234210362320E+01 -1.235568133676E+01
 -1.236495679293E+01 -1.236991655975E+01 -1.237055105856E+01 -1.236685494330E+01
 -1.235882751801E+01 -1.234647316774E+01 -1.232980177683E+01 -1.230882910844E+01
 -1.228357712030E+01 -1.225407419316E+01 -1.222035525062E+01 -1.218246175152E+01
 -1.214044153962E+01 -1.209434853915E+01 -1.204424229044E+01 -1.199018732588E+01
 -1.193225239450E+01 -1.187050955224E+01 -1.180503314424E+01 -1.173589871595E+01
 -1.166318189894E+01 -1.158695732679E+01 -1.150729764330E+01 -1.142427267177E+01
 -1.133794881692E+01 -1.124838877307E+01 -1.115565161057E+01 -1.105979330915E+01
 -1.096086780072E+01 -1.085892857533E+01 -1.075403089256E+01 -1.064623462626E+01
 -1.053560775216E+01 -1.042223046686E+01 -1.030619990048E+01 -1.018763535560E+01
 -1.006668397050E+01 -9.943526666594E+00 -9.818384197807E+00 -9.691523075789E+00
 -9.563261100326E+00 -9.433972181814E+00 -9.304090105533E+00 -9.174110859453E+00