<?xml version="1.0" encoding="UTF-8" ?>
<psml version="1.1" energy_unit="hartree" length_unit="bohr"
 uuid="36e290a0-be6d-11e7-4462-d0c96b6b87ec"
 xmlns="http://esl.cecam.org/PSML/ns/1.1">
<provenance creator="ONCVPSP-3.3.0+psml-3.3.0-73 (scalar-relativistic)"
 date="2017-10-31">
<annotation action="semilocal-pseudopotential-generation"
 action-cont="projectors-generation" />
<input-file name="oncvpsp-input">
<![CDATA[# atsym z nc nv iexc psfile
Ir 77 10 4 4 upf
# n l f
1 0 2.0
2 0 2.0
2 1 6.0
3 0 2.0
3 1 6.0
3 2 10.0
4 0 2.0
4 1 6.0
4 2 10.0
4 3 14.0
5 0 2.0
5 1 6.0
5 2 7.0
6 0 2.0
# lmax
3
# l rc ep ncon nbas qcut
0 1.6 0.0 4 8 8.1
1 1.6 0.0 4 8 8.1
2 1.5 0.0 4 8 8.4
3 2.25 0.5 4 8 6.8
# lloc lpopt rc5 dvloc0
4 5 1.5 0.0
# l nproj debl
0 2 1.2
1 2 2.5
2 2 1.0
3 2 3.0
# icmod fcfact rcfact
3 5.0 1.37
# epsh1 epsh2 depsh
-14.0 12.0 0.02
# rlmax drl
5.0 0.01
 0
]]>
</input-file>
</provenance>
<pseudo-atom-spec atomic-label="Ir" atomic-number="77" z-pseudo="17"
 flavor="Hamann&apos;s oncvpsp" relativity="scalar" spin-dft="no"
 core-corrections="yes">
<annotation pseudo-energy="-106.157038374" />
<exchange-correlation>
<annotation oncvpsp-xc-code="4" oncvpsp-xc-type="GGA -- Perdew-Burke-Ernzerhof" />
<libxc-info number-of-functionals="2">
<functional name="Perdew, Burke &amp; Ernzerhof (GGA)" type="exchange" id="101" />
<functional name="Perdew, Burke &amp; Ernzerhof (GGA)" type="correlation"
 id="130" />
</libxc-info>
</exchange-correlation>
<valence-configuration total-valence-charge="17">
<shell n="5" l="s" occupation="2" />
<shell n="5" l="p" occupation="6" />
<shell n="5" l="d" occupation="7" />
<shell n="6" l="s" occupation="2" />
</valence-configuration>
</pseudo-atom-spec>
<grid npts="457">
<annotation type="sampled from oncvpsp log grid"
 recipe="r(i:1..N) = r1*exp(a*(i-1)) + r=0; resampled"
 recipe-cont="r1: scale; a: step" scale="0.649350649351E-05"
 step="0.119285708653E-01" delta="0.500000000000E-02" rmax="44.2155744394" />
<grid-data>
  0.000000000000E+00  5.048998669752E-03  1.008497861164E-02  1.512907607261E-02
  2.014395333605E-02  2.526820806223E-02  3.058177187380E-02  3.571159986911E-02
  4.071879753945E-02  4.587753439355E-02  5.107691777807E-02  5.619126148361E-02
  6.181770561879E-02  6.720111355653E-02  7.305333671047E-02  7.847351971603E-02
  8.429585250881E-02  8.947645508006E-02  9.497544393250E-02  1.008123862541E-01
  1.070080517809E-01  1.122376350817E-01  1.177227929962E-01  1.234760156942E-01
  1.295104037517E-01  1.358396979821E-01  1.424783107250E-01  1.476693267439E-01
  1.530494708284E-01  1.586256336191E-01  1.644049568082E-01  1.703948422864E-01
  1.766029616229E-01  1.830372658906E-01  1.897059958500E-01  1.966176925027E-01
  2.037812080314E-01  2.112057171363E-01  2.163050679708E-01  2.215275375319E-01
  2.268760983981E-01  2.323537949178E-01  2.379637449423E-01  2.437091416002E-01
  2.495932551150E-01  2.556194346665E-01  2.617911102971E-01  2.681117948641E-01
  2.745850860393E-01  2.812146683566E-01  2.880043153094E-01  2.949578914983E-01
  3.020793548306E-01  3.093727587736E-01  3.168422546615E-01  3.244920940580E-01
  3.323266311769E-01  3.403503253601E-01  3.485677436156E-01  3.569835632174E-01
  3.656025743677E-01  3.744296829233E-01  3.834699131878E-01  3.927284107718E-01
  4.022104455215E-01  4.119214145181E-01  4.218668451502E-01  4.269292472921E-01
  4.320523982596E-01  4.372370270387E-01  4.424838713631E-01  4.477936778195E-01
  4.531672019533E-01  4.586052083768E-01  4.641084708773E-01  4.696777725278E-01
  4.753139057981E-01  4.810176726677E-01  4.867898847397E-01  4.926313633566E-01
  4.985429397169E-01  5.045254549935E-01  5.105797604534E-01  5.167067175789E-01
  5.229071981898E-01  5.291820845681E-01  5.355322695829E-01  5.419586568179E-01
  5.484621606997E-01  5.550437066281E-01  5.617042311076E-01  5.684446818809E-01
  5.752660180635E-01  5.821692102803E-01  5.891552408036E-01  5.962251036933E-01
  6.033798049376E-01  6.106203625968E-01  6.179478069480E-01  6.253631806314E-01
  6.328675387990E-01  6.404619492646E-01  6.481474926557E-01  6.559252625676E-01
  6.637963657184E-01  6.717619221070E-01  6.798230651723E-01  6.879809419544E-01
  6.962367132578E-01  7.045915538169E-01  7.130466524627E-01  7.216032122923E-01
  7.302624508398E-01  7.390256002499E-01  7.478939074529E-01  7.568686343423E-01
  7.659510579544E-01  7.751424706499E-01  7.844441802977E-01  7.938575104612E-01
  8.033838005868E-01  8.130244061938E-01  8.227806990681E-01  8.326540674569E-01
  8.426459162664E-01  8.527576672616E-01  8.629907592688E-01  8.733466483800E-01
  8.838268081606E-01  8.944327298585E-01  9.051659226168E-01  9.160279136882E-01
  9.270202486524E-01  9.381444916363E-01  9.494022255359E-01  9.607950522423E-01
  9.723245928692E-01  9.839924879837E-01  9.958003978395E-01  1.007750002614E+00
  1.019843002645E+00  1.032081118677E+00  1.044466092101E+00  1.056999685206E+00
  1.069683681428E+00  1.082519885606E+00  1.095510124233E+00  1.108656245724E+00
  1.121960120672E+00  1.135423642120E+00  1.149048725826E+00  1.162837310536E+00
  1.176791358262E+00  1.190912854561E+00  1.205203808816E+00  1.219666254522E+00
  1.234302249576E+00  1.249113876571E+00  1.264103243090E+00  1.279272482007E+00
  1.294623751791E+00  1.310159236813E+00  1.325881147654E+00  1.341791721426E+00
  1.357893222083E+00  1.374187940748E+00  1.390678196037E+00  1.407366334390E+00
  1.424254730402E+00  1.441345787167E+00  1.458641936613E+00  1.476145639853E+00
  1.493859387531E+00  1.511785700181E+00  1.529927128583E+00  1.548286254126E+00
  1.566865689176E+00  1.585668077446E+00  1.604696094375E+00  1.623952447508E+00
  1.643439876878E+00  1.663161155400E+00  1.683119089265E+00  1.703316518336E+00
  1.723756316556E+00  1.744441392355E+00  1.765374689063E+00  1.786559185332E+00
  1.807997895556E+00  1.829693870303E+00  1.851650196746E+00  1.873869999107E+00
  1.896356439097E+00  1.919112716366E+00  1.942142068962E+00  1.965447773790E+00
  1.989033147075E+00  2.012901544840E+00  2.037056363378E+00  2.061501039739E+00
  2.086239052216E+00  2.111273920842E+00  2.136609207892E+00  2.162248518387E+00
  2.188195500608E+00  2.214453846615E+00  2.241027292774E+00  2.267919620288E+00
  2.295134655731E+00  2.322676271600E+00  2.350548386859E+00  2.378754967501E+00
  2.407300027111E+00  2.436187627437E+00  2.465421878966E+00  2.495006941514E+00
  2.524947024812E+00  2.555246389110E+00  2.585909345779E+00  2.616940257928E+00
  2.648343541023E+00  2.680123663516E+00  2.712285147478E+00  2.744832569248E+00
  2.777770560079E+00  2.811103806799E+00  2.844837052481E+00  2.878975097111E+00
  2.913522798276E+00  2.948485071855E+00  2.983866892718E+00  3.019673295430E+00
  3.055909374976E+00  3.092580287475E+00  3.129691250925E+00  3.167247545936E+00
  3.205254516487E+00  3.243717570685E+00  3.282642181533E+00  3.322033887712E+00
  3.361898294364E+00  3.402241073897E+00  3.443067966783E+00  3.484384782385E+00
  3.526197399773E+00  3.568511768571E+00  3.611333909794E+00  3.654669916711E+00
  3.698525955712E+00  3.742908267180E+00  3.787823166386E+00  3.833277044383E+00
  3.879276368916E+00  3.925827685342E+00  3.972937617567E+00  4.020612868977E+00
  4.068860223405E+00  4.117686546086E+00  4.167098784639E+00  4.217103970055E+00
  4.267709217695E+00  4.318921728308E+00  4.370748789047E+00  4.423197774516E+00
  4.476276147810E+00  4.529991461584E+00  4.584351359123E+00  4.639363575432E+00
  4.695035938338E+00  4.751376369598E+00  4.808392886033E+00  4.866093600665E+00
  4.924486723873E+00  4.983580564560E+00  5.043383531334E+00  5.103904133710E+00
  5.165150983315E+00  5.227132795115E+00  5.289858388656E+00  5.353336689320E+00
  5.417576729592E+00  5.482587650347E+00  5.548378702151E+00  5.614959246577E+00
  5.682338757536E+00  5.750526822626E+00  5.819533144498E+00  5.889367542232E+00
  5.960039952738E+00  6.031560432171E+00  6.103939157357E+00  6.177186427246E+00
  6.251312664373E+00  6.326328416345E+00  6.402244357341E+00  6.479071289629E+00
  6.556820145105E+00  6.635501986846E+00  6.715128010688E+00  6.795709546817E+00
  6.877258061378E+00  6.959785158115E+00  7.043302580012E+00  7.127822210972E+00
  7.213356077504E+00  7.299916350434E+00  7.387515346639E+00  7.476165530799E+00
  7.565879517169E+00  7.656670071375E+00  7.748550112231E+00  7.841532713578E+00
  7.935631106141E+00  8.030858679414E+00  8.127228983567E+00  8.224755731370E+00
  8.323452800147E+00  8.423334233748E+00  8.524414244553E+00  8.626707215488E+00
  8.730227702074E+00  8.834990434499E+00  8.941010319713E+00  9.048302443549E+00
  9.156882072872E+00  9.266764657746E+00  9.377965833639E+00  9.490501423643E+00
  9.604387440727E+00  9.719640090015E+00  9.836275771096E+00  9.954311080349E+00
  1.007376281331E+01  1.019464796707E+01  1.031698374268E+01  1.044078754759E+01
  1.056607699816E+01  1.069286992214E+01  1.082118436120E+01  1.095103857354E+01
  1.108245103642E+01  1.121544044886E+01  1.135002573424E+01  1.148622604306E+01
  1.162406075557E+01  1.176354948464E+01  1.190471207845E+01  1.204756862340E+01
  1.219213944688E+01  1.233844512024E+01  1.248650646168E+01  1.263634453922E+01
  1.278798067369E+01  1.294143644178E+01  1.309673367908E+01  1.325389448323E+01
  1.341294121703E+01  1.357389651163E+01  1.373678326977E+01  1.390162466901E+01
  1.406844416504E+01  1.423726549502E+01  1.440811268096E+01  1.458101003313E+01
  1.475598215353E+01  1.493305393937E+01  1.511225058664E+01  1.529359759368E+01
  1.547712076480E+01  1.566284621398E+01  1.585080036855E+01  1.604100997297E+01
  1.623350209265E+01  1.642830411776E+01  1.662544376717E+01  1.682494909238E+01
  1.702684848149E+01  1.723117066327E+01  1.743794471122E+01  1.764720004776E+01
  1.785896644833E+01  1.807327404571E+01  1.829015333426E+01  1.850963517427E+01
  1.873175079636E+01  1.895653180592E+01  1.918401018759E+01  1.941421830984E+01
  1.964718892956E+01  1.988295519671E+01  2.012155065907E+01  2.036300926698E+01
  2.060736537819E+01  2.085465376273E+01  2.110490960788E+01  2.135816852317E+01
  2.161446654545E+01  2.187384014400E+01  2.213632622572E+01  2.240196214043E+01
  2.267078568612E+01  2.294283511435E+01  2.321814913572E+01  2.349676692535E+01
  2.377872812846E+01  2.406407286600E+01  2.435284174039E+01  2.464507584128E+01
  2.494081675137E+01  2.524010655239E+01  2.554298783102E+01  2.584950368499E+01
  2.615969772921E+01  2.647361410196E+01  2.679129747118E+01  2.711279304084E+01
  2.743814655733E+01  2.776740431601E+01  2.810061316781E+01  2.843782052582E+01
  2.877907437213E+01  2.912442326459E+01  2.947391634377E+01  2.982760333990E+01
  3.018553457997E+01  3.054776099493E+01  3.091433412687E+01  3.128530613640E+01
  3.166072981003E+01  3.204065856775E+01  3.242514647057E+01  3.281424822821E+01
  3.320801920695E+01  3.360651543743E+01  3.400979362268E+01  3.441791114616E+01
  3.483092607991E+01  3.524889719287E+01  3.567188395918E+01  3.609994656669E+01
  3.653314592549E+01  3.697154367660E+01  3.741520220072E+01  3.786418462713E+01
  3.831855484265E+01  3.877837750076E+01  3.924371803077E+01  3.971464264714E+01
  4.019121835891E+01  4.067351297922E+01  4.116159513497E+01  4.165553427659E+01
  4.215540068790E+01  4.266126549616E+01  4.317320068211E+01  4.369127909030E+01
  4.421557443938E+01
</grid-data>
</grid>
<valence-charge total-charge="17" is-unscreening-charge="yes"
 rescaled-to-z-pseudo="no">
<radfunc>
<data npts="457">
  2.856298235056E+00  2.857480662476E+00  2.861015532606E+00  2.866913602670E+00
  2.875115385216E+00  2.885902418872E+00  2.899654570760E+00  2.915407772689E+00
  2.933127942764E+00  2.953802308586E+00  2.977118527778E+00  3.002476829515E+00
  3.033144782249E+00  3.065198699050E+00  3.103042781562E+00  3.140870987226E+00
  3.184471805198E+00  3.225840526702E+00  3.272392692760E+00  3.324768825857E+00
  3.383685968492E+00  3.436065008228E+00  3.493595086597E+00  3.556771126124E+00
  3.626132858256E+00  3.702268199881E+00  3.785816701193E+00  3.853758667350E+00
  3.926574565241E+00  4.004598170083E+00  4.088183265123E+00  4.177704294678E+00
  4.273556918052E+00  4.376158430798E+00  4.485948012941E+00  4.603386755551E+00
  4.728957407653E+00  4.863163774372E+00  4.957690204689E+00  5.056447011635E+00
  5.159597431622E+00  5.267307751686E+00  5.379746901914E+00  5.497085967035E+00
  5.619497607188E+00  5.747155376879E+00  5.880232930191E+00  6.018903099209E+00
  6.163336831619E+00  6.313701972300E+00  6.470161872671E+00  6.632873810485E+00
  6.801987201773E+00  6.977641585702E+00  7.159964362377E+00  7.349068263008E+00
  7.545048531585E+00  7.747979797212E+00  7.957912616731E+00  8.174869668311E+00
  8.398841578346E+00  8.629782366579E+00  8.867604497865E+00  9.112173533710E+00
  9.363302382837E+00  9.620745157724E+00  9.884190653664E+00  1.001804762620E+01
  1.015325547855E+01  1.028975382972E+01  1.042747687570E+01  1.056635315273E+01
  1.070630529858E+01  1.084724981267E+01  1.098909681600E+01  1.113174981188E+01
  1.127510544864E+01  1.141905328562E+01  1.156347556370E+01  1.170824698212E+01
  1.185323448305E+01  1.199829704581E+01  1.214328549266E+01  1.228804230831E+01
  1.243240147531E+01  1.257618832777E+01  1.271921942607E+01  1.286130245499E+01
  1.300223614852E+01  1.314181024392E+01  1.327980546857E+01  1.341599356257E+01
  1.355013734069E+01  1.368199079704E+01  1.381129925606E+01  1.393779957346E+01
  1.406122039086E+01  1.418128244763E+01  1.429769895367E+01  1.441017602677E+01
  1.451841319784E+01  1.462210398744E+01  1.472093655662E+01  1.481459443495E+01
  1.490275732810E+01  1.498510200717E+01  1.506130328125E+01  1.513103505437E+01
  1.519397146719E+01  1.524978812314E+01  1.529816339808E+01  1.533877983135E+01
  1.537132559554E+01  1.539549604100E+01  1.541099531011E+01  1.541753801532E+01
  1.541485097350E+01  1.540267498818E+01  1.538076666980E+01  1.534890028295E+01
  1.530686960813E+01  1.525448980463E+01  1.519159925956E+01  1.511806140731E+01
  1.503376650243E+01  1.493863332833E+01  1.483261082321E+01  1.471567960437E+01
  1.458785337160E+01  1.444918017028E+01  1.429974349520E+01  1.413966321643E+01
  1.396909630941E+01  1.378823737271E+01  1.359731891794E+01  1.339661141855E+01
  1.318642310574E+01  1.296709950243E+01  1.273902268846E+01  1.250261029304E+01
  1.225831421350E+01  1.200661906202E+01  1.174804034539E+01  1.148312238563E+01
  1.121243599236E+01  1.093657590033E+01  1.065615798842E+01  1.037181629825E+01
  1.008419987291E+01  9.793969437750E+00  9.501793946447E+00  9.208347016607E+00
  8.914303279796E+00  8.620334671203E+00  8.327106684396E+00  8.035274616636E+00
  7.745479830248E+00  7.458346055603E+00  7.174475761472E+00  6.894446618915E+00
  6.618808085536E+00  6.348078137897E+00  6.082740181085E+00  5.823240165854E+00
  5.569983945297E+00  5.323334904458E+00  5.083611897535E+00  4.851087528103E+00
  4.625986807818E+00  4.408486228216E+00  4.198713278105E+00  3.996746435685E+00
  3.802615659586E+00  3.616303396598E+00  3.437746686858E+00  3.266842143156E+00
  3.103452735677E+00  2.947411722375E+00  2.798525458605E+00  2.656578145520E+00
  2.521339823353E+00  2.392576036867E+00  2.270049414524E+00  2.153521250157E+00
  2.042752831076E+00  1.937506667804E+00  1.837547586535E+00  1.742643697103E+00
  1.652567241276E+00  1.567095327436E+00  1.486010558029E+00  1.409101556363E+00
  1.336163399512E+00  1.266997964127E+00  1.201414191946E+00  1.139228281828E+00
  1.080263814515E+00  1.024351817368E+00  9.713307744883E-01  9.210465886170E-01
  8.733525004427E-01  8.281089707397E-01  7.851835304409E-01  7.444506034406E-01
  7.057913065905E-01  6.690932310270E-01  6.342502086409E-01  6.011620671769E-01
  5.697343771341E-01  5.398781933338E-01  5.115097937209E-01  4.845504176836E-01
  4.589260059053E-01  4.345669435050E-01  4.114078079821E-01  3.893871232570E-01
  3.684471208874E-01  3.485335093476E-01  3.295952520804E-01  3.115843548675E-01
  2.944556629190E-01  2.781666679501E-01  2.626773253925E-01  2.479498817885E-01
  2.339487123190E-01  2.206401683419E-01  2.079924347469E-01  1.959753968757E-01
  1.845605167113E-01  1.737207180008E-01  1.634302799443E-01  1.536647390650E-01
  1.444007988553E-01  1.356162467862E-01  1.272898782645E-01  1.194014271192E-01
  1.119315022067E-01  1.048615297272E-01  9.817370086048E-02  9.185092433567E-02
  8.587678356689E-02  8.023549799976E-02  7.491188832903E-02  6.989134526285E-02
  6.515980152447E-02  6.070370679661E-02  5.651000533170E-02  5.256611595136E-02
  4.885991419648E-02  4.537971637887E-02  4.211426530923E-02  3.905271748632E-02
  3.618463154453E-02  3.349995776952E-02  3.098902850427E-02  2.864254928070E-02
  2.645159052564E-02  2.440757970344E-02  2.250229377160E-02  2.072785184014E-02
  1.907670793969E-02  1.754164381761E-02  1.611576169540E-02  1.479247693428E-02
  1.356551056876E-02  1.242888168016E-02  1.137689959309E-02  1.040415588848E-02
  9.505516235241E-03  8.676112050853E-03  7.911332007634E-03  7.206813406928E-03
  6.558433447634E-03  5.962300418696E-03  5.414744847237E-03  4.912310635162E-03
  4.451746217342E-03  4.029995773999E-03  3.644190528772E-03  3.291640162273E-03
  2.969824368744E-03  2.676384581003E-03  2.409115886038E-03  2.165959150734E-03
  1.944993374181E-03  1.744428279996E-03  1.562597159138E-03  1.397949970843E-03
  1.249046706651E-03  1.114551020027E-03  9.932241218975E-04  8.839189404489E-04
  7.855745419169E-04  6.972108076531E-04  6.179233618251E-04  5.468787428730E-04
  4.833098118322E-04  4.265113896897E-04  3.758361159665E-04  3.306905207032E-04
  2.905313019829E-04  2.548618012978E-04  2.232286692842E-04  1.952187145835E-04
  1.704559288521E-04  1.485986811968E-04  1.293370755622E-04  1.123904648205E-04
  9.750511550783E-05  8.445201732606E-05  7.302483166111E-05  6.303797348731E-05
  5.432482111273E-05  4.673604829326E-05  4.013807329925E-05  3.441161956793E-05
  2.945038261929E-05  2.515979795990E-05  2.145590474995E-05  1.826430006861E-05
  1.551917868299E-05  1.316245330972E-05  1.114295045472E-05  9.415677028906E-06
  7.941153063183E-06  6.684805985974E-06  5.616422078938E-06  4.709650890580E-06
  3.941558561221E-06  3.292226194855E-06  2.744389601734E-06  2.283116928367E-06
  1.895520887095E-06  1.570502493803E-06  1.298523417955E-06  1.071404242483E-06
  8.821461207633E-07  7.247735027132E-07  5.941957809814E-07  4.860858802962E-07
  3.967739776864E-07  3.231546978704E-07  2.626062762665E-07  2.129203215399E-07
  1.722409402468E-07  1.390121079410E-07  1.119322841640E-07  8.991537320622E-08
  7.205722865947E-08  5.760698785837E-08  4.594260270348E-08  3.655000643295E-08
  2.900542208516E-08  2.296037809166E-08  1.812905009388E-08  1.427759612291E-08
  1.121519515166E-08  8.786537143753E-09  6.865546492186E-09  5.350150554642E-09
  4.157931224200E-09  3.222520474795E-09  2.490620920285E-09  1.919549930568E-09
  1.475221041714E-09  1.130489540358E-09  8.638004342983E-10  6.580867583618E-10
  4.998745036293E-10  3.785575758783E-10  2.858122442012E-10  2.151256745414E-10
  1.614174809586E-10  1.207368807561E-10  9.002110587113E-11  6.690328774141E-11
  4.956017090234E-11  3.659178675428E-11  2.692668941101E-11  1.974756870387E-11
  1.443305279804E-11  1.051232997538E-11  7.629886170964E-12  5.518197436516E-12
  3.976656250167E-12  2.855365913227E-12  2.042722057368E-12  1.412300211099E-12
  1.003567232807E-12  7.104077792775E-13  5.009460991612E-13  3.518652375690E-13
  2.461747843483E-13  1.715426522591E-13  1.190532570061E-13  8.228677542583E-14
  5.663920426892E-14  3.882228104824E-14  2.649719887830E-14  1.800743375038E-14
  1.218468459956E-14  8.208517930689E-15  5.505291412939E-15  3.675680923617E-15
  2.442945460598E-15  1.616160437196E-15  1.064206413259E-15  6.974509133242E-16
  4.549075819454E-16  2.952769406641E-16  1.907249419487E-16  1.225833582871E-16
  7.839272355204E-17  4.987857426420E-17  3.157329246635E-17  1.988228833599E-17
  1.245450464138E-17  7.760199047263E-18  4.809255431772E-18  2.964239505030E-18
  1.816982501579E-18  1.107545066301E-18  6.712992012108E-19  4.045623076504E-19
  2.424037954748E-19  1.443935884429E-19  8.550279679178E-20  5.032753969475E-20
  2.944372298995E-20  1.712023352681E-20  9.892919819197E-21  5.680736508536E-21
  3.241285241228E-21  1.837506882194E-21  1.034918189856E-21  5.790472578987E-22
  3.218241661050E-22  0.000000000000E+00  0.000000000000E+00  0.000000000000E+00
  0.000000000000E+00  0.000000000000E+00  0.000000000000E+00  0.000000000000E+00
  0.000000000000E+00  0.000000000000E+00  0.000000000000E+00  0.000000000000E+00
  0.000000000000E+00  0.000000000000E+00  0.000000000000E+00  0.000000000000E+00
  0.000000000000E+00  0.000000000000E+00  0.000000000000E+00  0.000000000000E+00
  0.000000000000E+00
</data>
</radfunc>
</valence-charge>
<pseudocore-charge matching-radius="0.842645916266"
 number-of-continuous-derivatives="4">
<annotation model-charge-form="Teter function with specified parameters" />
<radfunc>
<data npts="275">
  7.943414140556E+01  7.942934088164E+01  7.941499041037E+01  7.939104858829E+01
  7.935776060260E+01  7.931398926058E+01  7.925820128095E+01  7.919431647541E+01
  7.912248132219E+01  7.903870542304E+01  7.894426948116E+01  7.884161666565E+01
  7.871754452964E+01  7.858795189265E+01  7.843506278922E+01  7.828235880745E+01
  7.810650045344E+01  7.793979016491E+01  7.775235824025E+01  7.754168589683E+01
  7.730496347205E+01  7.709473767650E+01  7.686408032359E+01  7.661107366384E+01
  7.633363420631E+01  7.602950143844E+01  7.569622646551E+01  7.542556022525E+01
  7.513582143773E+01  7.482574643540E+01  7.449400016812E+01  7.413917413354E+01
  7.375978460029E+01  7.335427120280E+01  7.292099599904E+01  7.245824309537E+01
  7.196421895782E+01  7.143705354504E+01  7.106624087103E+01  7.067924214238E+01
  7.027544998108E+01  6.985424420048E+01  6.941499264699E+01  6.895705219808E+01
  6.847976993110E+01  6.798248447857E+01  6.746452758630E+01  6.692522589132E+01
  6.636390293766E+01  6.577988144824E+01  6.517248587200E+01  6.454104522574E+01
  6.388489625017E+01  6.320338690000E+01  6.249588018761E+01  6.176175839919E+01
  6.100042770167E+01  6.021132315737E+01  5.939391416161E+01  5.854771031630E+01
  5.767226774979E+01  5.676719588948E+01  5.583216468968E+01  5.486691231167E+01
  5.387125324710E+01  5.284508686851E+01  5.178840638223E+01  5.124864917041E+01
  5.070130814970E+01  5.014641306577E+01  4.958400133217E+01  4.901411834519E+01
  4.843681780129E+01  4.785216201617E+01  4.726022224488E+01  4.666107900207E+01
  4.605482238150E+01  4.544155237379E+01  4.482137918140E+01  4.419442352972E+01
  4.356081697301E+01  4.292070219391E+01  4.227423329524E+01  4.162157608245E+01
  4.096290833535E+01  4.029842006741E+01  3.962831377087E+01  3.895280464595E+01
  3.827212081226E+01  3.758650350028E+01  3.689620722112E+01  3.620149991221E+01
  3.550266305681E+01  3.479999177506E+01  3.409379488417E+01  3.338439492546E+01
  3.267212815571E+01  3.195734450038E+01  3.124040746611E+01  3.052169401017E+01
  2.980159436400E+01  2.908051180862E+01  2.835886239926E+01  2.763707463667E+01
  2.691558908296E+01  2.619485791943E+01  2.547534444424E+01  2.475752250799E+01
  2.404187588507E+01  2.332889757923E+01  2.261908906179E+01  2.191295944121E+01
  2.121102456305E+01  2.051380603964E+01  1.982183020915E+01  1.913562702402E+01
  1.845572886937E+01  1.778266931218E+01  1.711698178267E+01  1.645919818988E+01
  1.580984747389E+01  1.516945409786E+01  1.453853648343E+01  1.391760539409E+01
  1.330716227141E+01  1.270769753002E+01  1.211968881773E+01  1.154359924815E+01
  1.097987561364E+01  1.042894658753E+01  9.891220924908E+00  9.367085672246E+00
  8.856904396822E+00  8.361015447439E+00  7.879730258683E+00  7.413331711487E+00
  6.962072563254E+00  6.526173961234E+00  6.105824053146E+00  5.701176709267E+00
  5.312350370285E+00  4.939427035175E+00  4.582451403140E+00  4.241430183321E+00
  3.916331585438E+00  3.607085003766E+00  3.313580906000E+00  3.035670937363E+00
  2.773168249037E+00  2.525848058430E+00  2.293448447037E+00  2.075671399699E+00
  1.872184086890E+00  1.682620389325E+00  1.506582661652E+00  1.343643729305E+00
  1.193349109811E+00  1.055219446942E+00  9.287531431371E-01  8.134291726739E-01
  7.087100550918E-01  6.140449655382E-01  5.288729559575E-01  4.526262585110E-01
  3.847336403309E-01  3.246237767333E-01  2.717286084166E-01  2.254866470063E-01
  1.853461926317E-01  1.507684270867E-01  1.212303465877E-01  9.622749921878E-02
  7.527649389342E-02  5.791725005875E-02  4.371496043525E-02  3.226174279843E-02
  2.317796113825E-02  1.611320142469E-02  1.074689259182E-02  6.788569139683E-03
  3.977777833093E-03  2.083637225074E-03  9.040650084425E-04  2.646943497826E-04
  1.750622347632E-05  3.921017383294E-05  2.294107251207E-04  5.086006733329E-04
  8.160255831334E-04  1.107465850683E-03  1.352983575156E-03  1.534681137195E-03
  1.644516776614E-03  1.682219600958E-03  1.653342392680E-03  1.567485413614E-03
  1.436718275791E-03  1.274220046237E-03  1.093150308697E-03  9.057561787557E-04
  7.227125454204E-04  5.526853892664E-04  4.021012011803E-04  2.750995779448E-04
  1.736412527883E-04  9.774033731908E-05  4.578755457271E-05  1.493081030363E-05
  1.480582346390E-06  1.310224873383E-06  1.022522278519E-05  2.428045204479E-05
  4.003029980059E-05  5.470271956398E-05  6.629455875375E-05  7.359141133069E-05
  7.612045151115E-05  7.404887836465E-05  6.804350096756E-05  5.910846852825E-05
  4.841815604149E-05  3.716082417363E-05  2.640606403457E-05  1.700549356081E-05
  9.532048981870E-06  4.258914656753E-06  1.175069282171E-06  3.097824282389E-08
  4.054451054683E-07  1.783263740564E-06  3.633175764681E-06  5.476689949600E-06
  6.940383121220E-06  7.787085282293E-06  7.924485182411E-06  7.392771211108E-06
  6.335556708554E-06  4.960204995533E-06  3.494553624599E-06  2.146865215891E-06
  1.074680489928E-06  3.663353301054E-07  3.655469751689E-08  0.000000000000E+00
  0.000000000000E+00  0.000000000000E+00  0.000000000000E+00  0.000000000000E+00
  0.000000000000E+00  0.000000000000E+00  0.000000000000E+00  0.000000000000E+00
  0.000000000000E+00  0.000000000000E+00  0.000000000000E+00  0.000000000000E+00
  0.000000000000E+00  0.000000000000E+00  0.000000000000E+00  0.000000000000E+00
  0.000000000000E+00  0.000000000000E+00  0.000000000000E+00  0.000000000000E+00
  0.000000000000E+00  0.000000000000E+00  0.000000000000E+00  0.000000000000E+00
  0.000000000000E+00  0.000000000000E+00  0.000000000000E+00  0.000000000000E+00
  0.000000000000E+00  0.000000000000E+00  0.000000000000E+00
</data>
</radfunc>
</pseudocore-charge>
<semilocal-potentials set="scalar_relativistic">
<slps n="5" l="s" rc="1.60469609438" eref="-3.60091937331">
<radfunc>
<data npts="275">
 -9.910253903984E+00 -9.911674038274E+00 -9.915918118074E+00 -9.922994816845E+00
 -9.932825796649E+00 -9.945738253889E+00 -9.962171619689E+00 -9.980957120058E+00
 -1.000203854640E+01 -1.002656835264E+01 -1.005414755564E+01 -1.008404030619E+01
 -1.012005115714E+01 -1.015752554208E+01 -1.020155522749E+01 -1.024533670985E+01
 -1.029551687160E+01 -1.034285105531E+01 -1.039579667139E+01 -1.045496583138E+01
 -1.052102363312E+01 -1.057931105398E+01 -1.064285926711E+01 -1.071208274912E+01
 -1.078741655618E+01 -1.086931478791E+01 -1.095824836972E+01 -1.102985668819E+01
 -1.110590320453E+01 -1.118659826832E+01 -1.127215286532E+01 -1.136277703506E+01
 -1.145867804684E+01 -1.156005831760E+01 -1.166711305728E+01 -1.178002762962E+01
 -1.189897461925E+01 -1.202411060026E+01 -1.211104150463E+01 -1.220081945524E+01
 -1.229347430714E+01 -1.238903021260E+01 -1.248750504050E+01 -1.258890977531E+01
 -1.269324789749E+01 -1.280051474781E+01 -1.291069687836E+01 -1.302377139332E+01
 -1.313970528288E+01 -1.325845475413E+01 -1.337996456296E+01 -1.350416735126E+01
 -1.363098299391E+01 -1.376031796043E+01 -1.389206469587E+01 -1.402610102608E+01
 -1.416228959198E+01 -1.430047731772E+01 -1.444049491723E+01 -1.458215644357E+01
 -1.472525888488E+01 -1.486958181062E+01 -1.501488707113E+01 -1.516091855298E+01
 -1.530740199201E+01 -1.545404484545E+01 -1.560053622358E+01 -1.567362293632E+01
 -1.574654688122E+01 -1.581926404290E+01 -1.589172926827E+01 -1.596389627125E+01
 -1.603571763843E+01 -1.610714483552E+01 -1.617812821466E+01 -1.624861702257E+01
 -1.631855940957E+01 -1.638790243928E+01 -1.645659209927E+01 -1.652457331237E+01
 -1.659178994883E+01 -1.665818483926E+01 -1.672369978832E+01 -1.678827558919E+01
 -1.685185203888E+01 -1.691436795431E+01 -1.697576118924E+01 -1.703596865207E+01
 -1.709492632452E+01 -1.715256928132E+01 -1.720883171079E+01 -1.726364693664E+01
 -1.731694744078E+01 -1.736866488745E+01 -1.741873014865E+01 -1.746707333105E+01
 -1.751362380441E+01 -1.755831023178E+01 -1.760106060150E+01 -1.764180226126E+01
 -1.768046195438E+01 -1.771696585846E+01 -1.775123962659E+01 -1.778320843153E+01
 -1.781279701281E+01 -1.783992972717E+01 -1.786453060266E+01 -1.788652339646E+01
 -1.790583165694E+01 -1.792237879004E+01 -1.793608813050E+01 -1.794688301806E+01
 -1.795468687905E+01 -1.795942331381E+01 -1.796101619002E+01 -1.795938974260E+01
 -1.795446868038E+01 -1.794617830000E+01 -1.793444460737E+01 -1.791919444721E+01
 -1.790035564107E+01 -1.787785713429E+01 -1.785162915240E+01 -1.782160336752E+01
 -1.778771307525E+01 -1.774989338275E+01 -1.770808140854E+01 -1.766221649480E+01
 -1.761224043283E+01 -1.755809770240E+01 -1.749973572591E+01 -1.743710513801E+01
 -1.737016007164E+01 -1.729885846135E+01 -1.722316236453E+01 -1.714303830163E+01
 -1.705845761585E+01 -1.696939685309E+01 -1.687583816268E+01 -1.677776971918E+01
 -1.667518616565E+01 -1.656808907830E+01 -1.645648745239E+01 -1.634039820913E+01
 -1.621984672288E+01 -1.609486736820E+01 -1.596550408583E+01 -1.583181096713E+01
 -1.569385285638E+01 -1.555170597115E+01 -1.540545854121E+01 -1.525521146803E+01
 -1.510107900814E+01 -1.494318948573E+01 -1.478168604261E+01 -1.461672743707E+01
 -1.444848890727E+01 -1.427716312007E+01 -1.410296123205E+01 -1.392611409688E+01
 -1.374687366118E+01 -1.356551460051E+01 -1.338233625743E+01 -1.319766495545E+01