<?xml version="1.0" encoding="UTF-8" ?>
<psml version="1.1" energy_unit="hartree" length_unit="bohr"
 uuid="6c356d90-be63-11e7-5566-02cfedbd3685"
 xmlns="http://esl.cecam.org/PSML/ns/1.1">
<provenance creator="ONCVPSP-3.3.0+psml-3.3.0-73 (scalar-relativistic)"
 date="2017-10-31">
<annotation action="semilocal-pseudopotential-generation"
 action-cont="projectors-generation" />
<input-file name="oncvpsp-input">
<![CDATA[# atsym z nc nv iexc psfile
Se 34 3 5 4 upf
# n l f
1 0 2.0
2 0 2.0
2 1 6.0
3 0 2.0
3 1 6.0
3 2 10.0
4 0 2.0
4 1 4.0
# lmax
2
# l rc ep ncon nbas qcut
0 1.2 0.0 4 7 9.6
1 1.4 0.0 4 7 10.0
2 1.6 0.0 4 7 10.0
# lloc lpopt rc5 dvloc0
4 5 1.2 0.0
# l nproj debl
0 2 1.0
1 2 1.0
2 2 3.5
# icmod fcfact rcfact
3 2.6 1.5
# epsh1 epsh2 depsh
-12.0 12.0 0.02
# rlmax drl
6.0 0.01
 0
]]>
</input-file>
</provenance>
<pseudo-atom-spec atomic-label="Se" atomic-number="34" z-pseudo="24"
 flavor="Hamann&apos;s oncvpsp" relativity="scalar" spin-dft="no"
 core-corrections="yes">
<annotation pseudo-energy="-335.641621456" />
<exchange-correlation>
<annotation oncvpsp-xc-code="4" oncvpsp-xc-type="GGA -- Perdew-Burke-Ernzerhof" />
<libxc-info number-of-functionals="2">
<functional name="Perdew, Burke &amp; Ernzerhof (GGA)" type="exchange" id="101" />
<functional name="Perdew, Burke &amp; Ernzerhof (GGA)" type="correlation"
 id="130" />
</libxc-info>
</exchange-correlation>
<valence-configuration total-valence-charge="24">
<shell n="3" l="s" occupation="2" />
<shell n="3" l="p" occupation="6" />
<shell n="3" l="d" occupation="10" />
<shell n="4" l="s" occupation="2" />
<shell n="4" l="p" occupation="4" />
</valence-configuration>
</pseudo-atom-spec>
<grid npts="457">
<annotation type="sampled from oncvpsp log grid"
 recipe="r(i:1..N) = r1*exp(a*(i-1)) + r=0; resampled"
 recipe-cont="r1: scale; a: step" scale="0.147058823529E-04"
 step="0.119285708653E-01" delta="0.500000000000E-02" rmax="43.9674944076" />
<grid-data>
  0.000000000000E+00  5.020670286226E-03  1.002839488868E-02  1.504419146530E-02
  2.027130297145E-02  2.542795312469E-02  3.077510917124E-02  3.593736782770E-02
  4.097622089294E-02  4.616757116937E-02  5.139982494270E-02  5.654650141804E-02
  6.220851581082E-02  6.762595753660E-02  7.264345683615E-02  7.803322885668E-02
  8.382289432527E-02  8.897443012385E-02  9.444256583582E-02  1.002467588636E-01
  1.064076624107E-01  1.116079041230E-01  1.170622864982E-01  1.227832296276E-01
  1.287837605838E-01  1.350775430848E-01  1.416789086070E-01  1.468407994265E-01
  1.521907571722E-01  1.577356338231E-01  1.634825310017E-01  1.694388090690E-01
  1.756120965512E-01  1.820102999105E-01  1.886416136706E-01  1.955145309126E-01
  2.026378541519E-01  2.100207066126E-01  2.150914465530E-01  2.202846144386E-01
  2.256031661696E-01  2.310501290136E-01  2.366286033285E-01  2.423417643273E-01
  2.481928638852E-01  2.541852323908E-01  2.603222806417E-01  2.666075017855E-01
  2.730444733086E-01  2.796368590722E-01  2.863884113976E-01  2.933029732024E-01
  3.003844801874E-01  3.076369630770E-01  3.150645499135E-01  3.226714684067E-01
  3.304620483399E-01  3.384407240350E-01  3.466120368761E-01  3.549806378944E-01
  3.635512904158E-01  3.723288727715E-01  3.813183810757E-01  3.905249320684E-01
  3.999537660283E-01  4.096102497553E-01  4.194998796254E-01  4.245338781809E-01
  4.296282847191E-01  4.347838241357E-01  4.400012300253E-01  4.452812447856E-01
  4.506246197230E-01  4.560321151597E-01  4.615045005416E-01  4.670425545481E-01
  4.726470652027E-01  4.783188299851E-01  4.840586559450E-01  4.898673598163E-01
  4.957457681341E-01  5.016947173517E-01  5.077150539599E-01  5.138076346074E-01
  5.199733262227E-01  5.262130061374E-01  5.325275622111E-01  5.389178929576E-01
  5.453849076731E-01  5.519295265652E-01  5.585526808839E-01  5.652553130546E-01
  5.720383768112E-01  5.789028373329E-01  5.858496713809E-01  5.928798674375E-01
  5.999944258468E-01  6.071943589569E-01  6.144806912644E-01  6.218544595596E-01
  6.293167130743E-01  6.368685136312E-01  6.445109357948E-01  6.522450670243E-01
  6.600720078286E-01  6.679928719225E-01  6.760087863856E-01  6.841208918222E-01
  6.923303425241E-01  7.006383066344E-01  7.090459663140E-01  7.175545179098E-01
  7.261651721247E-01  7.348791541902E-01  7.436977040405E-01  7.526220764889E-01
  7.616535414068E-01  7.707933839037E-01  7.800429045105E-01  7.894034193647E-01
  7.988762603970E-01  8.084627755218E-01  8.181643288281E-01  8.279823007740E-01
  8.379180883833E-01  8.479731054439E-01  8.581487827092E-01  8.684465681017E-01
  8.788679269189E-01  8.894143420420E-01  9.000873141465E-01  9.108883619162E-01
  9.218190222592E-01  9.328808505263E-01  9.440754207327E-01  9.554043257814E-01
  9.668691776908E-01  9.784716078231E-01  9.902132671170E-01  1.002095826322E+00
  1.014120976238E+00  1.026290427953E+00  1.038605913089E+00  1.051069184046E+00
  1.063682014254E+00  1.076446198425E+00  1.089363552806E+00  1.102435915440E+00
  1.115665146425E+00  1.129053128182E+00  1.142601765721E+00  1.156312986909E+00
  1.170188742752E+00  1.184231007665E+00  1.198441779757E+00  1.212823081114E+00
  1.227376958088E+00  1.242105481585E+00  1.257010747364E+00  1.272094876332E+00
  1.287360014848E+00  1.302808335026E+00  1.318442035046E+00  1.334263339467E+00
  1.350274499541E+00  1.366477793535E+00  1.382875527058E+00  1.399470033382E+00
  1.416263673783E+00  1.433258837868E+00  1.450457943923E+00  1.467863439250E+00
  1.485477800521E+00  1.503303534127E+00  1.521343176537E+00  1.539599294655E+00
  1.558074486191E+00  1.576771380025E+00  1.595692636585E+00  1.614840948224E+00
  1.634219039603E+00  1.653829668078E+00  1.673675624095E+00  1.693759731584E+00
  1.714084848363E+00  1.734653866544E+00  1.755469712942E+00  1.776535349498E+00
  1.797853773692E+00  1.819428018976E+00  1.841261155204E+00  1.863356289066E+00
  1.885716564535E+00  1.908345163309E+00  1.931245305269E+00  1.954420248932E+00
  1.977873291919E+00  2.001607771422E+00  2.025627064680E+00  2.049934589456E+00
  2.074533804529E+00  2.099428210183E+00  2.124621348706E+00  2.150116804890E+00
  2.175918206549E+00  2.202029225027E+00  2.228453575728E+00  2.255195018636E+00
  2.282257358860E+00  2.309644447166E+00  2.337360180532E+00  2.365408502699E+00
  2.393793404731E+00  2.422518925588E+00  2.451589152695E+00  2.481008222527E+00
  2.510780321198E+00  2.540909685052E+00  2.571400601273E+00  2.602257408488E+00
  2.633484497390E+00  2.665086311359E+00  2.697067347095E+00  2.729432155260E+00
  2.762185341123E+00  2.795331565217E+00  2.828875543999E+00  2.862822050527E+00
  2.897175915133E+00  2.931942026115E+00  2.967125330428E+00  3.002730834394E+00
  3.038763604406E+00  3.075228767659E+00  3.112131512871E+00  3.149477091026E+00
  3.187270816118E+00  3.225518065911E+00  3.264224282702E+00  3.303394974095E+00
  3.343035713784E+00  3.383152142349E+00  3.423749968057E+00  3.464834967674E+00
  3.506412987286E+00  3.548489943134E+00  3.591071822451E+00  3.634164684321E+00
  3.677774660532E+00  3.721907956459E+00  3.766570851936E+00  3.811769702160E+00
  3.857510938585E+00  3.903801069848E+00  3.950646682687E+00  3.998054442879E+00
  4.046031096193E+00  4.094583469348E+00  4.143718470980E+00  4.193443092632E+00
  4.243764409743E+00  4.294689582660E+00  4.346225857652E+00  4.398380567944E+00
  4.451161134759E+00  4.504575068376E+00  4.558629969197E+00  4.613333528827E+00
  4.668693531173E+00  4.724717853547E+00  4.781414467790E+00  4.838791441403E+00
  4.896856938700E+00  4.955619221965E+00  5.015086652628E+00  5.075267692460E+00
  5.136170904769E+00  5.197804955626E+00  5.260178615094E+00  5.323300758475E+00
  5.387180367577E+00  5.451826531988E+00  5.517248450372E+00  5.583455431776E+00
  5.650456896957E+00  5.718262379721E+00  5.786881528277E+00  5.856324106617E+00
  5.926599995896E+00  5.997719195847E+00  6.069691826197E+00  6.142528128111E+00
  6.216238465649E+00  6.290833327237E+00  6.366323327163E+00  6.442719207089E+00
  6.520031837574E+00  6.598272219625E+00  6.677451486261E+00  6.757580904096E+00
  6.838671874945E+00  6.920735937445E+00  7.003784768694E+00  7.087830185918E+00
  7.172884148149E+00  7.258958757927E+00  7.346066263022E+00  7.434219058178E+00
  7.523429686877E+00  7.613710843119E+00  7.705075373236E+00  7.797536277715E+00
  7.891106713048E+00  7.985799993604E+00  8.081629593528E+00  8.178609148650E+00
  8.276752458434E+00  8.376073487935E+00  8.476586369790E+00  8.578305406228E+00
  8.681245071102E+00  8.785420011956E+00  8.890845052099E+00  8.997535192724E+00
  9.105505615037E+00  9.214771682418E+00  9.325348942607E+00  9.437253129918E+00
  9.550500167477E+00  9.665106169487E+00  9.781087443520E+00  9.898460492843E+00
  1.001724201876E+01  1.013744892298E+01  1.025909831006E+01  1.038220748978E+01
  1.050679397966E+01  1.063287550741E+01  1.076047001350E+01  1.088959565366E+01
  1.102027080151E+01  1.115251405112E+01  1.128634421974E+01  1.142178035037E+01
  1.155884171458E+01  1.169754781515E+01  1.183791838894E+01  1.197997340960E+01
  1.212373309052E+01  1.226921788760E+01  1.241644850226E+01  1.256544588428E+01
  1.271623123489E+01  1.286882600971E+01  1.302325192183E+01  1.317953094489E+01
  1.333768531623E+01  1.349773754003E+01  1.365971039051E+01  1.382362691519E+01
  1.398951043817E+01  1.415738456343E+01  1.432727317819E+01  1.449920045633E+01
  1.467319086181E+01  1.484926915215E+01  1.502746038197E+01  1.520778990656E+01
  1.539028338544E+01  1.557496678606E+01  1.576186638750E+01  1.595100878415E+01
  1.614242088956E+01  1.633612994023E+01  1.653216349951E+01  1.673054946151E+01
  1.693131605504E+01  1.713449184771E+01  1.734010574988E+01  1.754818701888E+01
  1.775876526310E+01  1.797187044626E+01  1.818753289162E+01  1.840578328631E+01
  1.862665268575E+01  1.885017251798E+01  1.907637458820E+01  1.930529108325E+01
  1.953695457625E+01  1.977139803117E+01  2.000865480754E+01  2.024875866523E+01
  2.049174376921E+01  2.073764469445E+01  2.098649643078E+01  2.123833438795E+01
  2.149319440060E+01  2.175111273341E+01  2.201212608621E+01  2.227627159925E+01
  2.254358685844E+01  2.281410990074E+01  2.308787921955E+01  2.336493377018E+01
  2.364531297542E+01  2.392905673113E+01  2.421620541190E+01  2.450679987685E+01
  2.480088147537E+01  2.509849205307E+01  2.539967395771E+01  2.570447004520E+01
  2.601292368574E+01  2.632507876997E+01  2.664097971521E+01  2.696067147179E+01
  2.728419952946E+01  2.761160992381E+01  2.794294924290E+01  2.827826463381E+01
  2.861760380942E+01  2.896101505513E+01  2.930854723579E+01  2.966024980262E+01
  3.001617280025E+01  3.037636687385E+01  3.074088327634E+01  3.110977387566E+01
  3.148309116216E+01  3.186088825611E+01  3.224321891518E+01  3.263013754217E+01
  3.302169919267E+01  3.341795958298E+01  3.381897509798E+01  3.422480279916E+01
  3.463550043275E+01  3.505112643794E+01  3.547173995519E+01  3.589740083466E+01
  3.632816964467E+01  3.676410768041E+01  3.720527697257E+01  3.765174029624E+01
  3.810356117980E+01  3.856080391396E+01  3.902353356092E+01  3.949181596366E+01
  3.996571775522E+01  4.044530636828E+01  4.093065004470E+01  4.142181784524E+01
  4.191887965938E+01  4.242190621529E+01  4.293096908988E+01  4.344614071895E+01
  4.396749440758E+01
</grid-data>
</grid>
<valence-charge total-charge="24" is-unscreening-charge="yes"
 rescaled-to-z-pseudo="no">
<radfunc>
<data npts="457">
  4.915315698368E+01  4.916704306667E+01  4.920854323245E+01  4.927774698639E+01
  4.937921762703E+01  4.950856074971E+01  4.967319612272E+01  4.986142742481E+01
  5.007270245369E+01  5.031858570420E+01  5.059509547808E+01  5.089486809662E+01
  5.125608053537E+01  5.163206376912E+01  5.200636544831E+01  5.243589711675E+01
  5.292837719440E+01  5.339307415588E+01  5.391300502241E+01  5.449419708765E+01
  5.514318438300E+01  5.571589970234E+01  5.634032671912E+01  5.702047845582E+01
  5.776053181177E+01  5.856479642855E+01  5.943767133771E+01  6.014001884502E+01
  6.088530874798E+01  6.167536075228E+01  6.251193075941E+01  6.339667851284E+01
  6.433112936922E+01  6.531662942548E+01  6.635429317548E+01  6.744494282121E+01
  6.858903832817E+01  6.978659730009E+01  7.061444205838E+01  7.146552662171E+01
  7.233940500066E+01  7.323547458527E+01  7.415295885147E+01  7.509088887393E+01
  7.604808364566E+01  7.702312922334E+01  7.801435674023E+01  7.901981935598E+01
  8.003726824559E+01  8.106412776866E+01  8.209747000523E+01  8.313398889728E+01
  8.416997429536E+01  8.520128627805E+01  8.622333018955E+01  8.723103292639E+01
  8.821882109909E+01  8.918060179748E+01  9.010974679903E+01  9.099908117597E+01
  9.184087737754E+01  9.262685598565E+01  9.334819446118E+01  9.399554530973E+01
  9.455906519337E+01  9.502845659139E+01  9.539302365912E+01  9.553256399731E+01
  9.564174393881E+01  9.571914926817E+01  9.576335752852E+01  9.577294186608E+01
  9.574647520032E+01  9.568253472748E+01  9.557970676285E+01  9.543659192599E+01
  9.525181067071E+01  9.502400915933E+01  9.475186547819E+01  9.443409618845E+01
  9.406946320301E+01  9.365678097694E+01  9.319492399481E+01  9.268283453463E+01
  9.211953068311E+01  9.150411457297E+01  9.083578080745E+01  9.011382503244E+01
  8.933765261114E+01  8.850678735052E+01  8.762088022330E+01  8.667971802344E+01
  8.568323188727E+01  8.463150560693E+01  8.352478365713E+01  8.236347885097E+01
  8.114817953598E+01  7.987965623654E+01  7.855886764565E+01  7.718696586541E+01
  7.576530079354E+01  7.429542355199E+01  7.277908885347E+01  7.121825620295E+01
  6.961508983380E+01  6.797195728236E+01  6.629142651047E+01  6.457626149340E+01
  6.282941619998E+01  6.105402690337E+01  5.925340277456E+01  5.743101472629E+01
  5.559048249288E+01  5.373555995105E+01  5.187011870851E+01  4.999813001021E+01
  4.812364503712E+01  4.625077369823E+01  4.438366204348E+01  4.252646845262E+01
  4.068333878235E+01  3.885838068123E+01  3.705563730735E+01  3.527906070832E+01
  3.353248514463E+01  3.181960065668E+01  3.014392719062E+01  2.850878960937E+01
  2.691729392081E+01  2.537230505554E+01  2.387642652110E+01  2.243198224695E+01
  2.104100091574E+01  1.970520305068E+01  1.842599109564E+01  1.720444268569E+01
  1.604130725993E+01  1.493700611729E+01  1.389163596042E+01  1.290497591313E+01
  1.197649793513E+01  1.110538049531E+01  1.029052530303E+01  9.530576837247E+00
  8.823944358616E+00  8.168826040028E+00  7.563234809979E+00  7.005025470479E+00
  6.491922629400E+00  6.021548976576E+00  5.591453434484E+00  5.199138728083E+00
  4.842087944105E+00  4.517789687098E+00  4.223761486552E+00  3.957571164888E+00
  3.716856051721E+00  3.499340142251E+00  3.302848688321E+00  3.125319300172E+00
  2.964810477481E+00  2.819507570303E+00  2.687726378405E+00  2.567914554869E+00
  2.458651041360E+00  2.358643778262E+00  2.266725946462E+00  2.181850999794E+00
  2.103086740218E+00  2.029608344815E+00  1.960689702313E+00  1.895694348800E+00
  1.834068920682E+00  1.775337516922E+00  1.719095324458E+00  1.665002607708E+00
  1.612778748416E+00  1.562196393116E+00  1.513075697710E+00  1.465278662769E+00
  1.418702289568E+00  1.373267160800E+00  1.328905371709E+00  1.285557959239E+00
  1.243175482857E+00  1.201716327444E+00  1.161145940718E+00  1.121435997425E+00
  1.082563632476E+00  1.044510729169E+00  1.007263261161E+00  9.708106857336E-01
  9.351453867428E-01  9.002621651858E-01  8.661577753454E-01  8.328305044291E-01
  8.002797935972E-01  7.685058982587E-01  7.375095855099E-01  7.072918666049E-01
  6.778537622878E-01  6.491960990312E-01  6.213193339874E-01  5.942234067026E-01
  5.679076156037E-01  5.423705173320E-01  5.176098470530E-01  4.936224579457E-01
  4.704042780640E-01  4.479502830239E-01  4.262544827894E-01  4.053099210906E-01
  3.851086860149E-01  3.656419304023E-01  3.468999007521E-01  3.288719734331E-01
  3.115466970673E-01  2.949118400352E-01  2.789544421327E-01  2.636608694836E-01
  2.490168718885E-01  2.350076418641E-01  2.216178746964E-01  2.088318289019E-01
  1.966333865534E-01  1.850061129906E-01  1.739333154937E-01  1.633981005606E-01
  1.533834294602E-01  1.438721718097E-01  1.348471569494E-01  1.262912229354E-01
  1.181872630090E-01  1.105182694331E-01  1.032673746189E-01  9.641788949104E-02
  8.995333906451E-02  8.385749522740E-02  7.811440674198E-02  7.270842649229E-02
  6.762423602052E-02  6.284686740569E-02  5.836172254892E-02  5.415458993767E-02
  5.021165896937E-02  4.651953192092E-02  4.306523365656E-02  3.983621917134E-02
  3.682037907196E-02  3.400604310033E-02  3.138198180872E-02  2.893740649795E-02
  2.666196753235E-02  2.454575114699E-02  2.257927486373E-02  2.075348163302E-02
  1.905973281851E-02  1.748980014031E-02  1.603585669176E-02  1.469046714185E-02
  1.344657723319E-02  1.229750268155E-02  1.123691757933E-02  1.025884240059E-02
  9.357631700528E-03  8.527961596737E-03  7.764817114056E-03  7.063479468930E-03
  6.419513363066E-03  5.828754350102E-03  5.287296332792E-03  4.791479242092E-03
  4.337876943489E-03  3.923285410036E-03  3.544711195854E-03  3.199360238406E-03
  2.884627012685E-03  2.598084055527E-03  2.337471873770E-03  2.100689245698E-03
  1.885783921426E-03  1.690943724364E-03  1.514488052820E-03  1.354859778075E-03
  1.210617532932E-03  1.080428382732E-03  9.630608692398E-04  8.573784164504E-04
  7.623330864282E-04  6.769596725341E-04  6.003701169619E-04  5.317482392591E-04
  4.703447624590E-04  4.154726235601E-04  3.665025553277E-04  3.228589267249E-04
  2.840158296912E-04  2.494934004377E-04  2.188543639126E-04  1.917007905837E-04
  1.676710551711E-04  1.464369874391E-04  1.277012056066E-04  1.111946233615E-04
  9.667412185680E-05  8.392037843227E-05  7.273584413759E-05  6.294286244008E-05
  5.438192178022E-05  4.691003489988E-05  4.039923810420E-05  3.473520385236E-05
  2.981596028142E-05  2.555071147789E-05  2.185875251504E-05  1.866847347248E-05
  1.591644685356E-05  1.354659301624E-05  1.150941843314E-05  9.761321800140E-06
  8.263963217832E-06  6.983691877553E-06  5.891027893221E-06  4.960194130534E-06
  4.168694096226E-06  3.496932160769E-06  2.927872597390E-06  2.446734127575E-06
  2.040716867429E-06  1.698758769421E-06  1.411318849384E-06  1.170184678296E-06
  9.683018017368E-07  7.996229263276E-07  6.589748815115E-07  5.419415261886E-07
  4.447609228426E-07  3.642352465581E-07  2.976520326903E-07  2.427154948611E-07
  1.974867644747E-07  1.603320141955E-07  1.298775309887E-07  1.049708996320E-07
  8.464754533411E-08  6.810196456237E-08  5.466304672948E-08  4.377295637469E-08
  3.496910628152E-08  2.786880698076E-08  2.215622768265E-08  1.757134825112E-08
  1.390062175275E-08  1.096910275267E-08  8.633828246020E-09  6.778266246763E-09
  5.307671932286E-09  4.145213168073E-09  3.228746501601E-09  2.508141587363E-09
  1.943066736351E-09  1.501161104531E-09  1.156530158404E-09  8.885106761370E-10
  6.806598367508E-10  5.199300778836E-10  3.959975091094E-10  3.007168825923E-10
  2.276805619401E-10  1.718626968282E-10  1.293329968603E-10  9.702718408063E-11
  7.256346065698E-11  5.409621879416E-11  4.019979824156E-11  2.977641004120E-11
  2.198343428350E-11  1.617619983029E-11  1.186309548809E-11  8.670470853860E-12
  6.315283072859E-12  4.583851771144E-12  3.315414289958E-12  2.389440396618E-12
  1.715881069435E-12  1.227699108539E-12  8.751679991058E-13  6.215361076535E-13
  4.397412609714E-13  3.099304304288E-13  2.175942187560E-13  1.521690574816E-13
  1.059938572775E-13  7.353424220186E-14  5.080799961812E-14  3.496124079460E-14
  2.395699256146E-14  1.634732387928E-14  1.110728376786E-14  7.514386759879E-15
  5.061521583593E-15  3.394279561581E-15  2.266052232363E-15  1.505998554853E-15
  9.962946069647E-16  6.560479005221E-16  4.299753209490E-16  2.804704259697E-16
  1.820711875798E-16  1.176198693302E-16  7.561010439233E-17  4.836293361798E-17
  3.077886940213E-17  1.948825256638E-17  1.227568978744E-17  7.692076001106E-18
  4.794426881578E-18  2.972311673627E-18  0.000000000000E+00  0.000000000000E+00
  0.000000000000E+00  0.000000000000E+00  0.000000000000E+00  0.000000000000E+00
  0.000000000000E+00  0.000000000000E+00  0.000000000000E+00  0.000000000000E+00
  0.000000000000E+00  0.000000000000E+00  0.000000000000E+00  0.000000000000E+00
  0.000000000000E+00  0.000000000000E+00  0.000000000000E+00  0.000000000000E+00
  0.000000000000E+00  0.000000000000E+00  0.000000000000E+00  0.000000000000E+00
  0.000000000000E+00  0.000000000000E+00  0.000000000000E+00  0.000000000000E+00
  0.000000000000E+00  0.000000000000E+00  0.000000000000E+00  0.000000000000E+00
  0.000000000000E+00  0.000000000000E+00  0.000000000000E+00  0.000000000000E+00
  0.000000000000E+00  0.000000000000E+00  0.000000000000E+00  0.000000000000E+00
  0.000000000000E+00
</data>
</radfunc>
</valence-charge>
<pseudocore-charge matching-radius="0.311328606634"
 number-of-continuous-derivatives="4">
<annotation model-charge-form="Teter function with specified parameters" />
<radfunc>
<data npts="291">
  2.329123859984E+02  2.328273435581E+02  2.325732661642E+02  2.321498547230E+02
  2.315296484514E+02  2.307401569521E+02  2.297369901775E+02  2.285924375067E+02
  2.273108000911E+02  2.258232576205E+02  2.241556091030E+02  2.223538433722E+02
  2.201913256942E+02  2.179502578432E+02  2.157292010661E+02  2.131926674693E+02
  2.103004704494E+02  2.075871321949E+02  2.045692979113E+02  2.012183293769E+02
  1.975043746452E+02  1.942512616711E+02  1.907303455946E+02  1.869258744238E+02
  1.828224979379E+02  1.784056193150E+02  1.736618172392E+02  1.698822768659E+02
  1.659080354878E+02  1.617358071746E+02  1.573633434319E+02  1.527896182976E+02
  1.480150270615E+02  1.430415969018E+02  1.378732068873E+02  1.325158137991E+02
  1.269776790683E+02  1.212695908076E+02  1.173763402682E+02  1.134182279073E+02
  1.094005760194E+02  1.053293247705E+02  1.012110459747E+02  9.705295177560E+01
  9.286289735889E+01  8.864937678245E+01  8.442151098487E+01  8.018902702411E+01
  7.596222761180E+01  7.175195004843E+01  6.756951373602E+01  6.342665555278E+01
  5.933545252327E+01  5.530823141262E+01  5.135746511818E+01  4.749565602966E+01
  4.373520688008E+01  4.008828001527E+01  3.656664646487E+01  3.318152669729E+01
  2.994342547511E+01  2.686196378082E+01  2.394571133805E+01  2.120202378569E+01
  1.863688904369E+01  1.625478780541E+01  1.405857336637E+01  1.303059626390E+01
  1.204937611128E+01  1.111477422167E+01  1.022653789143E+01  9.384300323395E+00
  8.587581192428E+00  7.835787878155E+00  7.128217384832E+00  6.464058963084E+00
  5.842397442183E+00  5.262217274895E+00  4.722407290031E+00  4.221766139976E+00
  3.759008422711E+00  3.332771449348E+00  2.941622619709E+00  2.584067359746E+00
  2.258557565909E+00  1.963500493011E+00  1.697268013904E+00  1.458206171427E+00
  1.244644935983E+00  1.054908075676E+00  8.873230406231E-01  7.402307588162E-01
  6.119952380597E-01  5.010128671559E-01  4.057213097914E-01  3.246078866421E-01
  2.562173451489E-01  1.991589222770E-01  1.521126133922E-01  1.138345701488E-01
  8.316156190511E-02  5.901444856512E-02  4.040062769059E-02  2.641543502493E-02
  1.624249492168E-02  9.153035242916E-03  4.504199698102E-03  1.736408904076E-03
  3.698392027235E-04  1.049921294920E-07  2.932455226923E-04  9.801303014706E-04
  1.850407981882E-03  2.746131481382E-03  3.555196719104E-03  4.204733531830E-03
  4.654584841766E-03  4.891003958712E-03  4.920690073584E-03  4.765268745166E-03
  4.456307839931E-03  4.030940432692E-03  3.528145216014E-03  2.985712710207E-03
  2.437902811018E-03  1.913776813210E-03  1.436165880678E-03  1.021218854297E-03
  6.784560926238E-04  4.112434173695E-04  2.175917279365E-04  9.118381475189E-05
  2.253048255714E-05  1.632000717303E-07  1.177978699181E-05  4.527256307185E-05
  8.958413402170E-05  1.353536172911E-04  1.753345377146E-04  2.045837118980E-04
  2.204370717595E-04  2.223025274933E-04  2.113107853243E-04  1.898719020416E-04
  1.611879556990E-04  1.287705456684E-04  9.600624555285E-05  6.580427408520E-05
  4.034944272799E-05  2.097099539290E-05  8.125479946704E-06  1.480469547082E-06
  7.683820441934E-08  2.541203413255E-06  7.317566682674E-06  1.288821530709E-05
  1.795830238918E-05  2.158553403309E-05  2.324510364882E-05  2.282928023257E-05
  2.058969244012E-05  1.703727128408E-05  1.281918766712E-05  8.593475346708E-06
  4.920324069437E-06  2.184659014300E-06  5.583719190579E-07  3.484373569071E-09
  0.000000000000E+00  0.000000000000E+00  0.000000000000E+00  0.000000000000E+00
  0.000000000000E+00  0.000000000000E+00  0.000000000000E+00  0.000000000000E+00
  0.000000000000E+00  0.000000000000E+00  0.000000000000E+00  0.000000000000E+00
  0.000000000000E+00  0.000000000000E+00  0.000000000000E+00  0.000000000000E+00
  0.000000000000E+00  0.000000000000E+00  0.000000000000E+00  0.000000000000E+00
  0.000000000000E+00  0.000000000000E+00  0.000000000000E+00  0.000000000000E+00
  0.000000000000E+00  0.000000000000E+00  0.000000000000E+00  0.000000000000E+00
  0.000000000000E+00  0.000000000000E+00  0.000000000000E+00  0.000000000000E+00
  0.000000000000E+00  0.000000000000E+00  0.000000000000E+00  0.000000000000E+00
  0.000000000000E+00  0.000000000000E+00  0.000000000000E+00  0.000000000000E+00
  0.000000000000E+00  0.000000000000E+00  0.000000000000E+00  0.000000000000E+00
  0.000000000000E+00  0.000000000000E+00  0.000000000000E+00  0.000000000000E+00
  0.000000000000E+00  0.000000000000E+00  0.000000000000E+00  0.000000000000E+00
  0.000000000000E+00  0.000000000000E+00  0.000000000000E+00  0.000000000000E+00
  0.000000000000E+00  0.000000000000E+00  0.000000000000E+00  0.000000000000E+00
  0.000000000000E+00  0.000000000000E+00  0.000000000000E+00  0.000000000000E+00
  0.000000000000E+00  0.000000000000E+00  0.000000000000E+00  0.000000000000E+00
  0.000000000000E+00  0.000000000000E+00  0.000000000000E+00  0.000000000000E+00
  0.000000000000E+00  0.000000000000E+00  0.000000000000E+00  0.000000000000E+00
  0.000000000000E+00  0.000000000000E+00  0.000000000000E+00  0.000000000000E+00
  0.000000000000E+00  0.000000000000E+00  0.000000000000E+00  0.000000000000E+00
  0.000000000000E+00  0.000000000000E+00  0.000000000000E+00  0.000000000000E+00
  0.000000000000E+00  0.000000000000E+00  0.000000000000E+00  0.000000000000E+00
  0.000000000000E+00  0.000000000000E+00  0.000000000000E+00  0.000000000000E+00
  0.000000000000E+00  0.000000000000E+00  0.000000000000E+00  0.000000000000E+00
  0.000000000000E+00  0.000000000000E+00  0.000000000000E+00  0.000000000000E+00
  0.000000000000E+00  0.000000000000E+00  0.000000000000E+00  0.000000000000E+00
  0.000000000000E+00  0.000000000000E+00  0.000000000000E+00  0.000000000000E+00
  0.000000000000E+00  0.000000000000E+00  0.000000000000E+00  0.000000000000E+00
  0.000000000000E+00  0.000000000000E+00  0.000000000000E+00  0.000000000000E+00
  0.000000000000E+00  0.000000000000E+00  0.000000000000E+00
</data>
</radfunc>
</pseudocore-charge>
<semilocal-potentials set="scalar_relativistic">
<slps n="3" l="s" rc="1.21282308111" eref="-7.84646101762">
<radfunc>
<data npts="291">
 -4.501911157788E+01 -4.501871102362E+01 -4.501751477428E+01 -4.501552286723E+01
 -4.501260866127E+01 -4.500890478290E+01 -4.500420718689E+01 -4.499885851096E+01
 -4.499288175563E+01 -4.498595935740E+01 -4.497821452461E+01 -4.496986169612E+01
 -4.495985105057E+01 -4.494948638767E+01 -4.493921634941E+01 -4.492748054083E+01
 -4.491407670446E+01 -4.490146648464E+01 -4.488738491873E+01 -4.487165893165E+01
 -4.485409091355E+01 -4.483855854263E+01 -4.482156938742E+01 -4.480297267552E+01
 -4.478259648274E+01 -4.476024364199E+01 -4.473568680894E+01 -4.471566588086E+01
 -4.469413117363E+01 -4.467094035357E+01 -4.464593323169E+01 -4.461892920297E+01
 -4.458972432929E+01 -4.455808801921E+01 -4.452375925247E+01 -4.448644229072E+01
 -4.444580181152E+01 -4.440145739887E+01 -4.436962583442E+01 -4.433581539374E+01
 -4.429987156741E+01 -4.426162626150E+01 -4.422089665281E+01 -4.417748398419E+01
 -4.413117231322E+01 -4.408172723633E+01 -4.402889462248E+01 -4.397239940604E+01
 -4.391194450894E+01 -4.384720998636E+01 -4.377785251911E+01 -4.370350540495E+01
 -4.362377922697E+01 -4.353826339068E+01 -4.344652871041E+01 -4.334813117328E+01
 -4.324261689860E+01 -4.312952812815E+01 -4.300840983103E+01 -4.287881621279E+01
 -4.274031615086E+01 -4.259249644004E+01 -4.243496184394E+01 -4.226733139309E+01
 -4.208923112971E+01 -4.190028440093E+01 -4.170010154888E+01 -4.159566902739E+01
 -4.148827112104E+01 -4.137785208844E+01 -4.126435436629E+01 -4.114771862803E+01
 -4.102788390050E+01 -4.090478772949E+01 -4.077836638418E+01 -4.064855509104E+01
 -4.051528828944E+01 -4.037849990380E+01 -4.023812362962E+01 -4.009409323412E+01
 -3.994634287398E+01 -3.979480743451E+01 -3.963942289498E+01 -3.948012672381E+01
 -3.931685830564E+01 -3.914955939910E+01 -3.897817462023E+01 -3.880265194277E+01
 -3.862294320198E+01 -3.843900458582E+01 -3.825079709487E+01 -3.805828695146E+01
 -3.786144593997E+01 -3.766025166292E+01 -3.745468770215E+01 -3.724474368061E+01
 -3.703041522696E+01 -3.681170385233E+01 -3.658861675512E+01 -3.636116657476E+01
 -3.612937111940E+01 -3.589325309348E+01 -3.565283985113E+01 -3.540816319833E+01
 -3.515925926316E+01 -3.490616844762E+01 -3.464893546923E+01 -3.438760949428E+01
 -3.412224435930E+01 -3.385289887228E+01 -3.357963718145E+01 -3.330252919640E+01
 -3.302165104425E+01 -3.273708554262E+01 -3.244892267046E+01 -3.215726001793E+01
 -3.186220319684E+01 -3.156386619344E+01 -3.126237164623E+01 -3.095785103188E+01
 -3.065044474343E+01 -3.034030204571E+01 -3.002758089487E+01 -2.971244761135E+01
 -2.939507639921E+01 -2.907564871044E+01 -2.875435246058E+01 -2.843138111280E+01
 -2.810693266107E+01 -2.778120856098E+01 -2.745441267668E+01 -2.712675033603E+01
 -2.679842760938E+01 -2.646965094993E+01 -2.614062735061E+01 -2.581156518119E+01
 -2.548267586523E+01 -2.515417653814E+01 -2.482629379356E+01 -2.449926857966E+01
 -2.417336225507E+01 -2.384886376650E+01 -2.352609787622E+01 -2.320543435748E+01
 -2.288729809129E+01 -2.257218003633E+01 -2.226064908906E+01 -2.195336488743E+01
 -2.165109162042E+01 -2.135471289319E+01 -2.106524770166E+01 -2.078386769008E+01