<?xml version="1.0" encoding="UTF-8" ?>
<psml version="1.1" energy_unit="hartree" length_unit="bohr"
 uuid="45a1a570-be42-11e7-6081-6ac9f9ee599e"
 xmlns="http://esl.cecam.org/PSML/ns/1.1">
<provenance creator="ONCVPSP-3.3.0+psml-3.3.0-73 (scalar-relativistic)"
 date="2017-10-31">
<annotation action="semilocal-pseudopotential-generation"
 action-cont="projectors-generation" />
<input-file name="oncvpsp-input">
<![CDATA[# atsym z nc nv iexc psfile
Se 34 5 3 4 upf
# n l f
1 0 2.0
2 0 2.0
2 1 6.0
3 0 2.0
3 1 6.0
3 2 10.0
4 0 2.0
4 1 4.0
# lmax
2
# l rc ep ncon nbas qcut
0 1.8 0.0 4 8 5.4
1 1.5 0.0 4 8 7.8
2 1.9 0.0 4 9 9.2
# lloc lpopt rc5 dvloc0
4 5 1.5 0.0
# l nproj debl
0 2 4.5
1 2 4.5
2 2 2.0
# icmod fcfact
3 5 1.4
# epsh1 epsh2 depsh
-12.0 12.0 0.02
# rlmax drl
6.0 0.01
 0
]]>
</input-file>
</provenance>
<pseudo-atom-spec atomic-label="Se" atomic-number="34" z-pseudo="16"
 flavor="Hamann&apos;s oncvpsp" relativity="scalar" spin-dft="no"
 core-corrections="yes">
<annotation pseudo-energy="-111.239328220" />
<exchange-correlation>
<annotation oncvpsp-xc-code="4" oncvpsp-xc-type="GGA -- Perdew-Burke-Ernzerhof" />
<libxc-info number-of-functionals="2">
<functional name="Perdew, Burke &amp; Ernzerhof (GGA)" type="exchange" id="101" />
<functional name="Perdew, Burke &amp; Ernzerhof (GGA)" type="correlation"
 id="130" />
</libxc-info>
</exchange-correlation>
<valence-configuration total-valence-charge="16">
<shell n="3" l="d" occupation="10" />
<shell n="4" l="s" occupation="2" />
<shell n="4" l="p" occupation="4" />
</valence-configuration>
</pseudo-atom-spec>
<grid npts="457">
<annotation type="sampled from oncvpsp log grid"
 recipe="r(i:1..N) = r1*exp(a*(i-1)) + r=0; resampled"
 recipe-cont="r1: scale; a: step" scale="0.147058823529E-04"
 step="0.119285708653E-01" delta="0.500000000000E-02" rmax="43.9674944076" />
<grid-data>
  0.000000000000E+00  5.020670286226E-03  1.002839488868E-02  1.504419146530E-02
  2.027130297145E-02  2.542795312469E-02  3.077510917124E-02  3.593736782770E-02
  4.097622089294E-02  4.616757116937E-02  5.139982494270E-02  5.654650141804E-02
  6.220851581082E-02  6.762595753660E-02  7.264345683615E-02  7.803322885668E-02
  8.382289432527E-02  8.897443012385E-02  9.444256583582E-02  1.002467588636E-01
  1.064076624107E-01  1.116079041230E-01  1.170622864982E-01  1.227832296276E-01
  1.287837605838E-01  1.350775430848E-01  1.416789086070E-01  1.468407994265E-01
  1.521907571722E-01  1.577356338231E-01  1.634825310017E-01  1.694388090690E-01
  1.756120965512E-01  1.820102999105E-01  1.886416136706E-01  1.955145309126E-01
  2.026378541519E-01  2.100207066126E-01  2.150914465530E-01  2.202846144386E-01
  2.256031661696E-01  2.310501290136E-01  2.366286033285E-01  2.423417643273E-01
  2.481928638852E-01  2.541852323908E-01  2.603222806417E-01  2.666075017855E-01
  2.730444733086E-01  2.796368590722E-01  2.863884113976E-01  2.933029732024E-01
  3.003844801874E-01  3.076369630770E-01  3.150645499135E-01  3.226714684067E-01
  3.304620483399E-01  3.384407240350E-01  3.466120368761E-01  3.549806378944E-01
  3.635512904158E-01  3.723288727715E-01  3.813183810757E-01  3.905249320684E-01
  3.999537660283E-01  4.096102497553E-01  4.194998796254E-01  4.245338781809E-01
  4.296282847191E-01  4.347838241357E-01  4.400012300253E-01  4.452812447856E-01
  4.506246197230E-01  4.560321151597E-01  4.615045005416E-01  4.670425545481E-01
  4.726470652027E-01  4.783188299851E-01  4.840586559450E-01  4.898673598163E-01
  4.957457681341E-01  5.016947173517E-01  5.077150539599E-01  5.138076346074E-01
  5.199733262227E-01  5.262130061374E-01  5.325275622111E-01  5.389178929576E-01
  5.453849076731E-01  5.519295265652E-01  5.585526808839E-01  5.652553130546E-01
  5.720383768112E-01  5.789028373329E-01  5.858496713809E-01  5.928798674375E-01
  5.999944258468E-01  6.071943589569E-01  6.144806912644E-01  6.218544595596E-01
  6.293167130743E-01  6.368685136312E-01  6.445109357948E-01  6.522450670243E-01
  6.600720078286E-01  6.679928719225E-01  6.760087863856E-01  6.841208918222E-01
  6.923303425241E-01  7.006383066344E-01  7.090459663140E-01  7.175545179098E-01
  7.261651721247E-01  7.348791541902E-01  7.436977040405E-01  7.526220764889E-01
  7.616535414068E-01  7.707933839037E-01  7.800429045105E-01  7.894034193647E-01
  7.988762603970E-01  8.084627755218E-01  8.181643288281E-01  8.279823007740E-01
  8.379180883833E-01  8.479731054439E-01  8.581487827092E-01  8.684465681017E-01
  8.788679269189E-01  8.894143420420E-01  9.000873141465E-01  9.108883619162E-01
  9.218190222592E-01  9.328808505263E-01  9.440754207327E-01  9.554043257814E-01
  9.668691776908E-01  9.784716078231E-01  9.902132671170E-01  1.002095826322E+00
  1.014120976238E+00  1.026290427953E+00  1.038605913089E+00  1.051069184046E+00
  1.063682014254E+00  1.076446198425E+00  1.089363552806E+00  1.102435915440E+00
  1.115665146425E+00  1.129053128182E+00  1.142601765721E+00  1.156312986909E+00
  1.170188742752E+00  1.184231007665E+00  1.198441779757E+00  1.212823081114E+00
  1.227376958088E+00  1.242105481585E+00  1.257010747364E+00  1.272094876332E+00
  1.287360014848E+00  1.302808335026E+00  1.318442035046E+00  1.334263339467E+00
  1.350274499541E+00  1.366477793535E+00  1.382875527058E+00  1.399470033382E+00
  1.416263673783E+00  1.433258837868E+00  1.450457943923E+00  1.467863439250E+00
  1.485477800521E+00  1.503303534127E+00  1.521343176537E+00  1.539599294655E+00
  1.558074486191E+00  1.576771380025E+00  1.595692636585E+00  1.614840948224E+00
  1.634219039603E+00  1.653829668078E+00  1.673675624095E+00  1.693759731584E+00
  1.714084848363E+00  1.734653866544E+00  1.755469712942E+00  1.776535349498E+00
  1.797853773692E+00  1.819428018976E+00  1.841261155204E+00  1.863356289066E+00
  1.885716564535E+00  1.908345163309E+00  1.931245305269E+00  1.954420248932E+00
  1.977873291919E+00  2.001607771422E+00  2.025627064680E+00  2.049934589456E+00
  2.074533804529E+00  2.099428210183E+00  2.124621348706E+00  2.150116804890E+00
  2.175918206549E+00  2.202029225027E+00  2.228453575728E+00  2.255195018636E+00
  2.282257358860E+00  2.309644447166E+00  2.337360180532E+00  2.365408502699E+00
  2.393793404731E+00  2.422518925588E+00  2.451589152695E+00  2.481008222527E+00
  2.510780321198E+00  2.540909685052E+00  2.571400601273E+00  2.602257408488E+00
  2.633484497390E+00  2.665086311359E+00  2.697067347095E+00  2.729432155260E+00
  2.762185341123E+00  2.795331565217E+00  2.828875543999E+00  2.862822050527E+00
  2.897175915133E+00  2.931942026115E+00  2.967125330428E+00  3.002730834394E+00
  3.038763604406E+00  3.075228767659E+00  3.112131512871E+00  3.149477091026E+00
  3.187270816118E+00  3.225518065911E+00  3.264224282702E+00  3.303394974095E+00
  3.343035713784E+00  3.383152142349E+00  3.423749968057E+00  3.464834967674E+00
  3.506412987286E+00  3.548489943134E+00  3.591071822451E+00  3.634164684321E+00
  3.677774660532E+00  3.721907956459E+00  3.766570851936E+00  3.811769702160E+00
  3.857510938585E+00  3.903801069848E+00  3.950646682687E+00  3.998054442879E+00
  4.046031096193E+00  4.094583469348E+00  4.143718470980E+00  4.193443092632E+00
  4.243764409743E+00  4.294689582660E+00  4.346225857652E+00  4.398380567944E+00
  4.451161134759E+00  4.504575068376E+00  4.558629969197E+00  4.613333528827E+00
  4.668693531173E+00  4.724717853547E+00  4.781414467790E+00  4.838791441403E+00
  4.896856938700E+00  4.955619221965E+00  5.015086652628E+00  5.075267692460E+00
  5.136170904769E+00  5.197804955626E+00  5.260178615094E+00  5.323300758475E+00
  5.387180367577E+00  5.451826531988E+00  5.517248450372E+00  5.583455431776E+00
  5.650456896957E+00  5.718262379721E+00  5.786881528277E+00  5.856324106617E+00
  5.926599995896E+00  5.997719195847E+00  6.069691826197E+00  6.142528128111E+00
  6.216238465649E+00  6.290833327237E+00  6.366323327163E+00  6.442719207089E+00
  6.520031837574E+00  6.598272219625E+00  6.677451486261E+00  6.757580904096E+00
  6.838671874945E+00  6.920735937445E+00  7.003784768694E+00  7.087830185918E+00
  7.172884148149E+00  7.258958757927E+00  7.346066263022E+00  7.434219058178E+00
  7.523429686877E+00  7.613710843119E+00  7.705075373236E+00  7.797536277715E+00
  7.891106713048E+00  7.985799993604E+00  8.081629593528E+00  8.178609148650E+00
  8.276752458434E+00  8.376073487935E+00  8.476586369790E+00  8.578305406228E+00
  8.681245071102E+00  8.785420011956E+00  8.890845052099E+00  8.997535192724E+00
  9.105505615037E+00  9.214771682418E+00  9.325348942607E+00  9.437253129918E+00
  9.550500167477E+00  9.665106169487E+00  9.781087443520E+00  9.898460492843E+00
  1.001724201876E+01  1.013744892298E+01  1.025909831006E+01  1.038220748978E+01
  1.050679397966E+01  1.063287550741E+01  1.076047001350E+01  1.088959565366E+01
  1.102027080151E+01  1.115251405112E+01  1.128634421974E+01  1.142178035037E+01
  1.155884171458E+01  1.169754781515E+01  1.183791838894E+01  1.197997340960E+01
  1.212373309052E+01  1.226921788760E+01  1.241644850226E+01  1.256544588428E+01
  1.271623123489E+01  1.286882600971E+01  1.302325192183E+01  1.317953094489E+01
  1.333768531623E+01  1.349773754003E+01  1.365971039051E+01  1.382362691519E+01
  1.398951043817E+01  1.415738456343E+01  1.432727317819E+01  1.449920045633E+01
  1.467319086181E+01  1.484926915215E+01  1.502746038197E+01  1.520778990656E+01
  1.539028338544E+01  1.557496678606E+01  1.576186638750E+01  1.595100878415E+01
  1.614242088956E+01  1.633612994023E+01  1.653216349951E+01  1.673054946151E+01
  1.693131605504E+01  1.713449184771E+01  1.734010574988E+01  1.754818701888E+01
  1.775876526310E+01  1.797187044626E+01  1.818753289162E+01  1.840578328631E+01
  1.862665268575E+01  1.885017251798E+01  1.907637458820E+01  1.930529108325E+01
  1.953695457625E+01  1.977139803117E+01  2.000865480754E+01  2.024875866523E+01
  2.049174376921E+01  2.073764469445E+01  2.098649643078E+01  2.123833438795E+01
  2.149319440060E+01  2.175111273341E+01  2.201212608621E+01  2.227627159925E+01
  2.254358685844E+01  2.281410990074E+01  2.308787921955E+01  2.336493377018E+01
  2.364531297542E+01  2.392905673113E+01  2.421620541190E+01  2.450679987685E+01
  2.480088147537E+01  2.509849205307E+01  2.539967395771E+01  2.570447004520E+01
  2.601292368574E+01  2.632507876997E+01  2.664097971521E+01  2.696067147179E+01
  2.728419952946E+01  2.761160992381E+01  2.794294924290E+01  2.827826463381E+01
  2.861760380942E+01  2.896101505513E+01  2.930854723579E+01  2.966024980262E+01
  3.001617280025E+01  3.037636687385E+01  3.074088327634E+01  3.110977387566E+01
  3.148309116216E+01  3.186088825611E+01  3.224321891518E+01  3.263013754217E+01
  3.302169919267E+01  3.341795958298E+01  3.381897509798E+01  3.422480279916E+01
  3.463550043275E+01  3.505112643794E+01  3.547173995519E+01  3.589740083466E+01
  3.632816964467E+01  3.676410768041E+01  3.720527697257E+01  3.765174029624E+01
  3.810356117980E+01  3.856080391396E+01  3.902353356092E+01  3.949181596366E+01
  3.996571775522E+01  4.044530636828E+01  4.093065004470E+01  4.142181784524E+01
  4.191887965938E+01  4.242190621529E+01  4.293096908988E+01  4.344614071895E+01
  4.396749440758E+01
</grid-data>
</grid>
<valence-charge total-charge="16" is-unscreening-charge="yes"
 rescaled-to-z-pseudo="no">
<radfunc>
<data npts="457">
  6.791043374319E-03  6.818115319428E-03  6.906949169511E-03  7.081520304637E-03
  7.397312300420E-03  7.903137629130E-03  8.714779206006E-03  9.873606986674E-03
  1.146854766202E-02  1.371796216462E-02  1.675484181004E-02  2.065662574360E-02
  2.620469310690E-02  3.296814451865E-02  4.070922244800E-02  5.084009760561E-02
  6.410883341262E-02  7.826183586075E-02  9.599327885837E-02  1.182074933608E-01
  1.460323402116E-01  1.732644581765E-01  2.058513144541E-01  2.448282006879E-01
  2.914220880715E-01  3.470840706445E-01  4.135262603995E-01  4.716317369044E-01
  5.379037005990E-01  6.134409509191E-01  6.994773904528E-01  7.973955207672E-01
  9.087405050177E-01  1.035234593498E+00  1.178791628066E+00  1.341531243079E+00
  1.525792261474E+00  1.734144642489E+00  1.887808230157E+00  2.054316961025E+00
  2.234613874491E+00  2.429691228972E+00  2.640589843777E+00  2.868397765833E+00
  3.114248144155E+00  3.379316182954E+00  3.664815032060E+00  3.971990461292E+00
  4.302114153692E+00  4.656475441810E+00  5.036371301771E+00  5.443094412518E+00
  5.877919083004E+00  6.342084849188E+00  6.836777546512E+00  7.363107673212E+00
  7.922085876758E+00  8.514595421399E+00  9.141361530801E+00  9.802917547845E+00
  1.049956791566E+01  1.123134806162E+01  1.199798136124E+01  1.279883347315E+01
  1.363286447092E+01  1.449857935384E+01  1.539397769590E+01  1.585203244121E+01
  1.631650339137E+01  1.678697616774E+01  1.726299567313E+01  1.774406473234E+01
  1.822964281430E+01  1.871914485099E+01  1.921194016964E+01  1.970735155555E+01
  2.020465446363E+01  2.070307639788E+01  2.120179647866E+01  2.169994521832E+01
  2.219660452646E+01  2.269080796647E+01  2.318154128547E+01  2.366774323971E+01
  2.414830673787E+01  2.462208032404E+01  2.508787002198E+01  2.554444156143E+01
  2.599052300616E+01  2.642480780220E+01  2.684595826292E+01  2.725260950545E+01
  2.764337385084E+01  2.801684569690E+01  2.837160686987E+01  2.870623245700E+01
  2.901929711793E+01  2.930938186819E+01  2.957508132278E+01  2.981501138235E+01
  3.002781733836E+01  3.021218236714E+01  3.036683637588E+01  3.049056515660E+01
  3.058221979634E+01  3.064072628465E+01  3.066509525115E+01  3.065443175865E+01
  3.060794506939E+01  3.052495829446E+01  3.040491782946E+01  3.024740247301E+01
  3.005213211848E+01  2.981897590455E+01  2.954795970619E+01  2.923927284459E+01
  2.889327389356E+01  2.851049545992E+01  2.809164781744E+01  2.763762127790E+01
  2.714948718895E+01  2.662849745675E+01  2.607608250195E+01  2.549384757093E+01
  2.488356733946E+01  2.424717876429E+01  2.358677215821E+01  2.290458048701E+01
  2.220296691113E+01  2.148441062157E+01  2.075149104704E+01  2.000687053865E+01
  1.925327566750E+01  1.849347730023E+01  1.773026964625E+01  1.696644849799E+01
  1.620478891100E+01  1.544802259372E+01  1.469881529589E+01  1.395974449998E+01
  1.323327773014E+01  1.252175179799E+01  1.182735330321E+01  1.115210069888E+01
  1.049782821684E+01  9.866171926493E+00  9.258558171673E+00  8.676194594749E+00
  8.120063915353E+00  7.590920583738E+00  7.089290376798E+00  6.615472949172E+00
  6.169547294120E+00  5.751380010302E+00  5.360636212960E+00  4.996792872910E+00
  4.659154315899E+00  4.346869569959E+00  4.058951210846E+00  3.794295326948E+00
  3.551702206086E+00  3.329897338412E+00  3.127552332253E+00  2.943305353500E+00
  2.775780723370E+00  2.623607343339E+00  2.485435658411E+00  2.359952919194E+00
  2.245896557394E+00  2.142065546564E+00  2.047329677792E+00  1.960636736620E+00
  1.881017620732E+00  1.807589486123E+00  1.739556487023E+00  1.676206453841E+00
  1.616904697149E+00  1.561090079200E+00  1.508271777641E+00  1.458024255184E+00
  1.409982230946E+00  1.363835342577E+00  1.319322737522E+00  1.276227723765E+00
  1.234372590331E+00  1.193613682361E+00  1.153836792074E+00  1.114952906346E+00
  1.076894334232E+00  1.039611223671E+00  1.003068577090E+00  9.672440959743E-01
  9.321265859500E-01  8.977139213017E-01  8.640105959009E-01  8.310244725263E-01
  7.987634891026E-01  7.672350600265E-01  7.364463275222E-01  7.064038034583E-01
  6.771132697287E-01  6.485796626727E-01  6.208069795501E-01  5.937982026946E-01
  5.675552401963E-01  5.420788819927E-01  5.173687702409E-01  4.934233828576E-01
  4.702400290443E-01  4.478148558338E-01  4.261428644506E-01  4.052179354984E-01
  3.850328619516E-01  3.655793889800E-01  3.468482596204E-01  3.288292655101E-01
  3.115113017250E-01  2.948824249866E-01  2.789299144783E-01  2.636403345786E-01
  2.489995988708E-01  2.349930348377E-01  2.216054487069E-01  2.088211899594E-01
  1.966242150647E-01  1.849981500572E-01  1.739263516098E-01  1.633919663157E-01
  1.533779879131E-01  1.438673122512E-01  1.348427898137E-01  1.262872756618E-01
  1.181836766853E-01  1.105149960818E-01  1.032643750081E-01  9.641513137537E-02
  8.995079577402E-02  8.385514454028E-02  7.811222998572E-02  7.270640782940E-02
  6.762236188225E-02  6.284512604436E-02  5.836010368483E-02  5.415308448119E-02
  5.021025880266E-02  4.651822972663E-02  4.306402278357E-02  3.983509352949E-02
  3.681933304944E-02  3.400507149867E-02  3.138107979146E-02  2.893656954983E-02
  2.666119142664E-02  2.454503191907E-02  2.257860878940E-02  2.075286521045E-02
  1.905916275300E-02  1.748927333113E-02  1.603537022061E-02  1.469001826259E-02
  1.344616336250E-02  1.229712139034E-02  1.123656658474E-02  1.025851955852E-02
  9.357334998516E-03  8.527689147207E-03  7.764567147869E-03  7.063250329203E-03
  6.419303499249E-03  5.828562312294E-03  5.287120766287E-03  4.791318882146E-03
  4.337730610306E-03  3.923152003962E-03  3.544589692781E-03  3.199249685382E-03
  2.884526523715E-03  2.597992807580E-03  2.337389102964E-03  2.100614243678E-03
  1.885716031917E-03  1.690882339901E-03  1.514432611640E-03  1.354809761179E-03
  1.210572461294E-03  1.080387814666E-03  9.630243979020E-04  8.573456674873E-04
  7.623037157498E-04  6.769333642154E-04  6.003465812643E-04  5.317272107667E-04
  4.703259983238E-04  4.154559018512E-04  3.664876734804E-04  3.228457000841E-04
  2.840040901449E-04  2.494829951359E-04  2.188451540683E-04  1.916926503512E-04
  1.676638705979E-04  1.464306554880E-04  1.276956332442E-04  1.111897267096E-04
  9.666982540408E-05  8.391661430177E-05  7.273255140822E-05  6.293998651844E-05
  5.437941382016E-05  4.690785126690E-05  4.039733988207E-05  3.473355638944E-05
  2.981453277411E-05  2.554947658887E-05  2.185768602408E-05  1.866755395746E-05
  1.591565539982E-05  1.354591295199E-05  1.150883508932E-05  9.760822292683E-06
  8.263536250649E-06  6.983327564708E-06  5.890717598643E-06  4.959930323874E-06
  4.168470223468E-06  3.496742528331E-06  2.927712268514E-06  2.446598829896E-06
  2.040602910676E-06  1.698662972309E-06  1.411238474789E-06  1.170117375909E-06
  9.682455574276E-07  7.995760175456E-07  6.589358380733E-07  5.419090958846E-07
  4.447340413334E-07  3.642130110841E-07  2.976336791623E-07  2.427003779416E-07
  1.974743402980E-07  1.603218254113E-07  1.298691938462E-07  1.049640928518E-07
  8.464200054235E-08  6.809745808744E-08  5.465939258329E-08  4.377000026203E-08
  3.496672049908E-08  2.786688608409E-08  2.215468481446E-08  1.757011203769E-08
  1.389963368689E-08  1.096831499266E-08  8.633201768940E-09  6.777769303171E-09
  5.307278756372E-09  4.144902903869E-09  3.228502311382E-09  2.507949913295E-09
  1.942916690691E-09  1.501043967344E-09  1.156438964984E-09  8.884398790361E-10
  6.806050297050E-10  5.198877709300E-10  3.959649459268E-10  3.006918925638E-10
  2.276614406869E-10  1.718481100184E-10  1.293219029892E-10  9.701877266681E-11
  7.255710292809E-11  5.409142845834E-11  4.019620037973E-11  2.977371651653E-11
  2.198142436442E-11  1.617470497112E-11  1.186198741398E-11  8.669652263398E-12
  6.314680407577E-12  4.583409611249E-12  3.315091025442E-12  2.389204895035E-12
  1.715710119832E-12  1.227575467693E-12  8.750789034892E-13  6.214721442072E-13
  4.396955133063E-13  3.098978356724E-13  2.175710848909E-13  1.521527025028E-13
  1.059823404592E-13  7.352616473900E-14  5.080235731705E-14  3.495731565570E-14
  2.395427330799E-14  1.634544794177E-14  1.110599510614E-14  7.513505327600E-15
  5.060921314765E-15  3.393872569013E-15  2.265777513941E-15  1.505813957192E-15
  9.961711322872E-16  6.559656916263E-16  4.299208425239E-16  2.804344948802E-16
  1.820476028271E-16  1.176044636096E-16  7.560009064201E-17  4.835645698236E-17
  3.077470153717E-17  1.948558409716E-17  1.227399010565E-17  7.690999035784E-18
  4.793748091899E-18  2.971886136848E-18  0.000000000000E+00  0.000000000000E+00
  0.000000000000E+00  0.000000000000E+00  0.000000000000E+00  0.000000000000E+00
  0.000000000000E+00  0.000000000000E+00  0.000000000000E+00  0.000000000000E+00
  0.000000000000E+00  0.000000000000E+00  0.000000000000E+00  0.000000000000E+00
  0.000000000000E+00  0.000000000000E+00  0.000000000000E+00  0.000000000000E+00
  0.000000000000E+00  0.000000000000E+00  0.000000000000E+00  0.000000000000E+00
  0.000000000000E+00  0.000000000000E+00  0.000000000000E+00  0.000000000000E+00
  0.000000000000E+00  0.000000000000E+00  0.000000000000E+00  0.000000000000E+00
  0.000000000000E+00  0.000000000000E+00  0.000000000000E+00  0.000000000000E+00
  0.000000000000E+00  0.000000000000E+00  0.000000000000E+00  0.000000000000E+00
  0.000000000000E+00
</data>
</radfunc>
</valence-charge>
<pseudocore-charge matching-radius="0.644510935795"
 number-of-continuous-derivatives="4">
<annotation model-charge-form="Teter function with specified parameters" />
<radfunc>
<data npts="291">
  1.531936972015E+02  1.531787126986E+02  1.531339218244E+02  1.530592047392E+02
  1.529495915002E+02  1.528097677001E+02  1.526316266621E+02  1.524277258489E+02
  1.521985709451E+02  1.519314867918E+02  1.516306266405E+02  1.513038400978E+02
  1.509092168150E+02  1.504974441811E+02  1.500864724314E+02  1.496135602314E+02
  1.490696032978E+02  1.485545982808E+02  1.479763423390E+02  1.473273511748E+02
  1.465993311372E+02  1.459538834142E+02  1.452468806204E+02  1.444727897174E+02
  1.436256510488E+02  1.426990607403E+02  1.416861560818E+02  1.408654409347E+02
  1.399887911119E+02  1.390527882508E+02  1.380538656725E+02  1.369883119030E+02
  1.358522763119E+02  1.346417772240E+02  1.333527129040E+02  1.319808758515E+02
  1.305219708870E+02  1.289716375492E+02  1.278851169797E+02  1.267547007453E+02
  1.255790865763E+02  1.243569815469E+02  1.230871082193E+02  1.217682114357E+02
  1.203990657956E+02  1.189784838552E+02  1.175053250828E+02  1.159785056038E+02
  1.143970087640E+02  1.127598965359E+02  1.110663217861E+02  1.093155414185E+02
  1.075069303933E+02  1.056399966190E+02  1.037143966955E+02  1.017299524785E+02
  9.968666841378E+01  9.758474957560E+01  9.542462031912E+01  9.320694343449E+01
  9.093263966306E+01  8.860290740685E+01  8.621924243014E+01  8.378345731726E+01
  8.129770041333E+01  7.876447393523E+01  7.618665089894E+01  7.488201869570E+01
  7.356749046740E+01  7.224353613325E+01  7.091065128024E+01  6.956935743522E+01
  6.822020228560E+01  6.686375984427E+01  6.550063055443E+01  6.413144132924E+01
  6.275684552205E+01  6.137752282209E+01  5.999417907083E+01  5.860754599419E+01
  5.721838084561E+01  5.582746595519E+01  5.443560818002E+01  5.304363825104E+01
  5.165241001177E+01  5.026279954459E+01  4.887570418023E+01  4.749204138664E+01
  4.611274753357E+01  4.473877652957E+01  4.337109832863E+01  4.201069730409E+01
  4.065857048795E+01  3.931572567451E+01  3.798317938776E+01  3.666195471273E+01
  3.535307899194E+01  3.405758138881E+01  3.277649032100E+01  3.151083076754E+01
  3.026162145489E+01  2.902987192799E+01  2.781657951377E+01  2.662272618582E+01
  2.544927534023E+01  2.429716849394E+01  2.316732191844E+01  2.206062322310E+01
  2.097792790363E+01  1.992005587298E+01  1.888778799308E+01  1.788186262743E+01
  1.690297223580E+01  1.595176003358E+01  1.502881673954E+01  1.413467743682E+01
  1.326981857288E+01  1.243465512492E+01  1.162953795792E+01  1.085475140262E+01
  1.011051108122E+01  9.396962008117E+00  8.714176992643E+00  8.062155370194E+00
  7.440822086753E+00  6.850027160557E+00  6.289545542727E+00  5.759077396455E+00
  5.258248811710E+00  4.786612969359E+00  4.343651765149E+00  3.928777900149E+00
  3.541337439986E+00  3.180612840634E+00  2.845826433585E+00  2.536144358005E+00
  2.250680922076E+00  1.988503370061E+00  1.748637025980E+00  1.530070778992E+00
  1.331762869980E+00  1.152646933323E+00  9.916382426297E-01  8.476401044079E-01
  7.195503393352E-01  6.062677870945E-01  5.066987678190E-01  4.197634310954E-01
  3.444019223631E-01  2.795802964953E-01  2.242961094451E-01  1.775836211567E-01
  1.385185465206E-01  1.062222960185E-01  7.986565384688E-02  5.867184869794E-02
  4.191898093247E-02  2.894177950121E-02  1.913267251220E-02  1.194216662192E-02
  6.878542233247E-03  3.506883564111E-03  1.447474732864E-03  3.736047899922E-04
  8.835797188752E-06  1.237982931989E-04  5.325874734679E-04  1.088840844121E-03
  1.681583712997E-03  2.230932412625E-03  2.683746424191E-03  3.009319462020E-03
  3.195196032070E-03  3.243194023735E-03  3.165705647583E-03  2.982338698314E-03
  2.716947997042E-03  2.395093329207E-03  2.041945697386E-03  1.680648766045E-03
  1.331127543517E-03  1.009322200271E-03  7.268120303967E-04  4.907834593083E-04
  3.042871561054E-04  1.667231036782E-04  7.448917695007E-05  2.172850546953E-05
  1.113624422823E-06  4.610962417585E-06  2.417723274265E-05  5.234930070940E-05
  8.270048534404E-05  1.101483228696E-04  1.311108286484E-04  1.435195005498E-04
  1.467070184907E-04  1.411952226742E-04  1.284140557661E-04  1.103844768916E-04
  8.939785415286E-05  6.772119395562E-05  4.735215780079E-05  2.984072172456E-05
  1.618625900567E-05  6.810557997574E-06  1.599613407915E-06  6.693207806407E-10
  1.156520712664E-06  4.056868116409E-06  7.686692726623E-06  1.115403972257E-05
  1.378387931529E-05  1.517026381270E-05  1.518508178973E-05  1.394754397413E-05
  1.176338469078E-05  9.046036808331E-06  6.233370575209E-06  3.712887327535E-06
  1.765728515305E-06  5.359629579346E-07  2.701015647924E-08  0.000000000000E+00
  0.000000000000E+00  0.000000000000E+00  0.000000000000E+00  0.000000000000E+00
  0.000000000000E+00  0.000000000000E+00  0.000000000000E+00  0.000000000000E+00
  0.000000000000E+00  0.000000000000E+00  0.000000000000E+00  0.000000000000E+00
  0.000000000000E+00  0.000000000000E+00  0.000000000000E+00  0.000000000000E+00
  0.000000000000E+00  0.000000000000E+00  0.000000000000E+00  0.000000000000E+00
  0.000000000000E+00  0.000000000000E+00  0.000000000000E+00  0.000000000000E+00
  0.000000000000E+00  0.000000000000E+00  0.000000000000E+00  0.000000000000E+00
  0.000000000000E+00  0.000000000000E+00  0.000000000000E+00  0.000000000000E+00
  0.000000000000E+00  0.000000000000E+00  0.000000000000E+00  0.000000000000E+00
  0.000000000000E+00  0.000000000000E+00  0.000000000000E+00  0.000000000000E+00
  0.000000000000E+00  0.000000000000E+00  0.000000000000E+00  0.000000000000E+00
  0.000000000000E+00  0.000000000000E+00  0.000000000000E+00  0.000000000000E+00
  0.000000000000E+00  0.000000000000E+00  0.000000000000E+00  0.000000000000E+00
  0.000000000000E+00  0.000000000000E+00  0.000000000000E+00  0.000000000000E+00
  0.000000000000E+00  0.000000000000E+00  0.000000000000E+00  0.000000000000E+00
  0.000000000000E+00  0.000000000000E+00  0.000000000000E+00  0.000000000000E+00
  0.000000000000E+00  0.000000000000E+00  0.000000000000E+00
</data>
</radfunc>
</pseudocore-charge>
<semilocal-potentials set="scalar_relativistic">
<slps n="4" l="s" rc="1.81942801898" eref="-0.635300447773">
<radfunc>
<data npts="291">
  4.254258209944E+01  4.251276281785E+01  4.242378495753E+01  4.227587844184E+01
  4.206006242748E+01  4.178676444355E+01  4.144177818285E+01  4.105124812373E+01
  4.061778309774E+01  4.011968358215E+01  3.956755421024E+01  3.897833040747E+01
  3.828092942411E+01  3.756919670399E+01  3.687457639757E+01  3.609403077701E+01
  3.522011762083E+01  3.441533135769E+01  3.353681131170E+01  3.258106106722E+01
  3.154513122179E+01  3.065712619227E+01  2.971561118603E+01  2.872025891184E+01
  2.767121559883E+01  2.656915147153E+01  2.541530456065E+01  2.451702068839E+01
  2.359163804435E+01  2.264036403117E+01  2.166460660758E+01  2.066597111514E+01
  1.964625397670E+01  1.860743320243E+01  1.755165572963E+01  1.648122171911E+01
  1.539856603116E+01  1.430623720238E+01  1.357394428740E+01  1.283932304809E+01
  1.210318240612E+01  1.136633749692E+01  1.062960621507E+01  9.893805778338E+00
  9.159749347988E+00  8.428242742315E+00  7.700081279346E+00  6.976046782798E+00
  6.256904783059E+00  5.543401942163E+00  4.836263728316E+00  4.136192361873E+00
  3.443865050538E+00  2.759932527267E+00  2.085017899859E+00  1.419715816578E+00
  7.645919476301E-01  1.201827777380E-01 -5.130042992633E-01 -1.134490597003E+00
 -1.743825481333E+00 -2.340585463683E+00 -2.924373066494E+00 -3.494815486742E+00
 -4.051563085859E+00 -4.594287736147E+00 -5.122681055459E+00 -5.381412043093E+00
 -5.636452563577E+00 -5.887768794404E+00 -6.135327795489E+00 -6.379097450528E+00
 -6.619046409150E+00 -6.855144030644E+00 -7.087360328610E+00 -7.315665918539E+00
 -7.540031967088E+00 -7.760430144722E+00 -7.976832581622E+00 -8.189211827612E+00
 -8.397540816643E+00 -8.601792836446E+00 -8.801941504048E+00 -8.997960747837E+00
 -9.189824796964E+00 -9.377508178841E+00 -9.560985725598E+00 -9.740232590342E+00
 -9.915224274109E+00 -1.008593666438E+01 -1.025234608606E+01 -1.041442936573E+01
 -1.057216391004E+01 -1.072552779878E+01 -1.087449989350E+01 -1.101905996176E+01
 -1.115918881758E+01 -1.129486847786E+01 -1.142608233463E+01 -1.155281534242E+01
 -1.167505421991E+01 -1.179278766441E+01 -1.190600657755E+01 -1.201470429980E+01
 -1.211887685160E+01 -1.221852317780E+01 -1.231364539250E+01 -1.240424902052E+01
 -1.249034323205E+01 -1.257194106659E+01 -1.264905964258E+01 -1.272172034910E+01
 -1.278994901623E+01 -1.285377606118E+01 -1.291323660723E+01 -1.296837057331E+01
 -1.301922273191E+01 -1.306584273351E+01 -1.310828509571E+01 -1.314660915503E+01
 -1.318087897917E+01 -1.321116323698E+01 -1.323753502252E+01 -1.326007162889E+01
 -1.327885426603E+01 -1.329396771591E+01 -1.330549991689E+01 -1.331354146827E+01
 -1.331818504501E+01 -1.331952471230E+01 -1.331765513015E+01 -1.331267063957E+01
 -1.330466422483E+01 -1.329372635126E+01 -1.327994368530E+01 -1.326339771353E+01
 -1.324416329117E+01 -1.322230716691E+01 -1.319788655100E+01 -1.317094781497E+01
 -1.314152543298E+01 -1.310964129294E+01 -1.307530451637E+01 -1.303851192443E+01
 -1.299924926868E+01 -1.295749330520E+01 -1.291321472865E+01 -1.286638190053E+01
 -1.281696520942E+01 -1.276494180077E+01 -1.271030031884E+01 -1.265304522372E+01
 -1.259320018355E+01 -1.253080999386E+01 -1.246594043258E+01 -1.239867541849E+01