<?xml version="1.0" encoding="UTF-8" ?>
<psml version="1.1" energy_unit="hartree" length_unit="bohr"
 uuid="6f8ca450-be62-11e7-6d0b-4104ef7dd8a9"
 xmlns="http://esl.cecam.org/PSML/ns/1.1">
<provenance creator="ONCVPSP-3.3.0+psml-3.3.0-73 (scalar-relativistic)"
 date="2017-10-31">
<annotation action="semilocal-pseudopotential-generation"
 action-cont="projectors-generation" />
<input-file name="oncvpsp-input">
<![CDATA[# atsym z nc nv iexc psfile
F 9 1 2 4 upf
# n l f
1 0 2.0
2 0 2.0
2 1 5.0
# lmax
2
# l rc ep ncon nbas qcut
0 1.3 0.0 4 8 8.6
1 1.45 0.0 4 8 9.0
2 1.6 0.15 4 8 5.8
# lloc lpopt rc5 dvloc0
4 5 0.95 0.0
# l nproj debl
0 2 1.5
1 2 1.5
2 1 2.0
# icmod fcfact rcfact
3 2.5 1.85
# epsh1 epsh2 depsh
-12.0 12.0 0.02
# rlmax drl
6.0 0.01
 0
]]>
</input-file>
</provenance>
<pseudo-atom-spec atomic-label="F" atomic-number="9" z-pseudo="7"
 flavor="Hamann&apos;s oncvpsp" relativity="scalar" spin-dft="no"
 core-corrections="yes">
<annotation pseudo-energy="-23.8735181626" />
<exchange-correlation>
<annotation oncvpsp-xc-code="4" oncvpsp-xc-type="GGA -- Perdew-Burke-Ernzerhof" />
<libxc-info number-of-functionals="2">
<functional name="Perdew, Burke &amp; Ernzerhof (GGA)" type="exchange" id="101" />
<functional name="Perdew, Burke &amp; Ernzerhof (GGA)" type="correlation"
 id="130" />
</libxc-info>
</exchange-correlation>
<valence-configuration total-valence-charge="7">
<shell n="2" l="s" occupation="2" />
<shell n="2" l="p" occupation="5" />
</valence-configuration>
</pseudo-atom-spec>
<grid npts="457">
<annotation type="sampled from oncvpsp log grid"
 recipe="r(i:1..N) = r1*exp(a*(i-1)) + r=0; resampled"
 recipe-cont="r1: scale; a: step" scale="0.555555555556E-04"
 step="0.119285708653E-01" delta="0.500000000000E-02" rmax="44.1907361906" />
<grid-data>
  0.000000000000E+00  5.046162377637E-03  1.007931334073E-02  1.512057726285E-02
  2.013263740199E-02  2.525401356072E-02  3.056459245980E-02  3.569153875685E-02
  4.069592361693E-02  4.585176253312E-02  5.104822514639E-02  5.615969585203E-02
  6.178297931314E-02  6.716336310323E-02  7.301229875098E-02  7.842943695036E-02
  8.424849902796E-02  8.942619137815E-02  9.492209115497E-02  1.007557545544E-01
  1.069479396451E-01  1.121745852098E-01  1.176566618182E-01  1.234066526239E-01
  1.294376508434E-01  1.357633895713E-01  1.423982730511E-01  1.475863729991E-01
  1.529634947694E-01  1.585365251318E-01  1.643126017665E-01  1.702991224063E-01
  1.765037543106E-01  1.829344440862E-01  1.895994278638E-01  1.965072418476E-01
  2.036667332471E-01  2.110870716089E-01  2.161835578658E-01  2.214030936869E-01
  2.267486499809E-01  2.322232693860E-01  2.378300680021E-01  2.435722371639E-01
  2.494530452580E-01  2.554758395827E-01  2.616440482536E-01  2.679611821546E-01
  2.744308369366E-01  2.810566950636E-01  2.878425279092E-01  2.947921979030E-01
  3.019096607292E-01  3.091989675778E-01  3.166642674510E-01  3.243098095244E-01
  3.321399455655E-01  3.401591324113E-01  3.483719345042E-01  3.567830264909E-01
  3.653971958825E-01  3.742193457798E-01  3.832544976644E-01  3.925077942560E-01
  4.019845024405E-01  4.116900162674E-01  4.216298600202E-01  4.266894183404E-01
  4.318096913605E-01  4.369914076568E-01  4.422353045487E-01  4.475421282033E-01
  4.529126337417E-01  4.583475853466E-01  4.638477563708E-01  4.694139294472E-01
  4.750468966006E-01  4.807474593598E-01  4.865164288721E-01  4.923546260186E-01
  4.982628815308E-01  5.042420361092E-01  5.102929405425E-01  5.164164558290E-01
  5.226134532990E-01  5.288848147385E-01  5.352314325154E-01  5.416542097056E-01
  5.481540602221E-01  5.547319089447E-01  5.613886918521E-01  5.681253561543E-01
  5.749428604281E-01  5.818421747533E-01  5.888242808503E-01  5.958901722205E-01
  6.030408542872E-01  6.102773445386E-01  6.176006726731E-01  6.250118807451E-01
  6.325120233141E-01  6.401021675939E-01  6.477833936050E-01  6.555567943282E-01
  6.634234758602E-01  6.713845575705E-01  6.794411722613E-01  6.875944663285E-01
  6.958455999244E-01  7.041957471235E-01  7.126460960890E-01  7.211978492421E-01
  7.298522234330E-01  7.386104501142E-01  7.474737755155E-01  7.564434608217E-01
  7.655207823516E-01  7.747070317398E-01  7.840035161207E-01  7.934115583141E-01
  8.029324970139E-01  8.125676869781E-01  8.223184992218E-01  8.321863212125E-01
  8.421725570670E-01  8.522786277518E-01  8.625059712848E-01  8.728560429403E-01
  8.833303154555E-01  8.939302792410E-01  9.046574425919E-01  9.155133319030E-01
  9.264994918858E-01  9.376174857885E-01  9.488688956179E-01  9.602553223653E-01
  9.717783862337E-01  9.834397268685E-01  9.952410035910E-01  1.007183895634E+00
  1.019270102382E+00  1.031501343610E+00  1.043879359734E+00  1.056405912050E+00
  1.069082782995E+00  1.081911776391E+00  1.094894717708E+00  1.108033454320E+00
  1.121329855772E+00  1.134785814041E+00  1.148403243810E+00  1.162184082735E+00
  1.176130291728E+00  1.190243855229E+00  1.204526781492E+00  1.218981102870E+00
  1.233608876104E+00  1.248412182617E+00  1.263393128809E+00  1.278553846354E+00
  1.293896492511E+00  1.309423250421E+00  1.325136329426E+00  1.341037965379E+00
  1.357130420963E+00  1.373415986015E+00  1.389896977847E+00  1.406575741581E+00
  1.423454650480E+00  1.440536106286E+00  1.457822539562E+00  1.475316410036E+00
  1.493020206957E+00  1.510936449440E+00  1.529067686834E+00  1.547416499076E+00
  1.565985497064E+00  1.584777323029E+00  1.603794650906E+00  1.623040186716E+00
  1.642516668957E+00  1.662226868985E+00  1.682173591412E+00  1.702359674509E+00
  1.722787990603E+00  1.743461446491E+00  1.764382983849E+00  1.785555579655E+00
  1.806982246611E+00  1.828666033570E+00  1.850610025973E+00  1.872817346284E+00
  1.895291154440E+00  1.918034648293E+00  1.941051064073E+00  1.964343676841E+00
  1.987915800964E+00  2.011770790575E+00  2.035912040062E+00  2.060342984543E+00
  2.085067100357E+00  2.110087905562E+00  2.135408960428E+00  2.161033867953E+00
  2.186966274369E+00  2.213209869661E+00  2.239768388097E+00  2.266645608754E+00
  2.293845356059E+00  2.321371500332E+00  2.349227958336E+00  2.377418693836E+00
  2.405947718162E+00  2.434819090780E+00  2.464036919870E+00  2.493605362908E+00
  2.523528627263E+00  2.553810970790E+00  2.584456702440E+00  2.615470182869E+00
  2.646855825063E+00  2.678618094964E+00  2.710761512104E+00  2.743290650249E+00
  2.776210138052E+00  2.809524659708E+00  2.843238955625E+00  2.877357823092E+00
  2.911886116969E+00  2.946828750373E+00  2.982190695378E+00  3.017976983722E+00
  3.054192707527E+00  3.090843020017E+00  3.127933136257E+00  3.165468333892E+00
  3.203453953899E+00  3.241895401346E+00  3.280798146162E+00  3.320167723916E+00
  3.360009736603E+00  3.400329853442E+00  3.441133811684E+00  3.482427417424E+00
  3.524216546433E+00  3.566507144990E+00  3.609305230730E+00  3.652616893499E+00
  3.696448296221E+00  3.740805675775E+00  3.785695343885E+00  3.831123688011E+00
  3.877097172267E+00  3.923622338335E+00  3.970705806395E+00  4.018354276071E+00
  4.066574527384E+00  4.115373421713E+00  4.164757902773E+00  4.214734997607E+00
  4.265311817578E+00  4.316495559389E+00  4.368293506101E+00  4.420713028175E+00
  4.473761584513E+00  4.527446723527E+00  4.581776084209E+00  4.636757397220E+00
  4.692398485986E+00  4.748707267818E+00  4.805691755032E+00  4.863360056092E+00
  4.921720376766E+00  4.980781021287E+00  5.040550393542E+00  5.101036998265E+00
  5.162249442244E+00  5.224196435551E+00  5.286886792777E+00  5.350329434291E+00
  5.414533387502E+00  5.479507788152E+00  5.545261881610E+00  5.611805024189E+00
  5.679146684480E+00  5.747296444693E+00  5.816264002030E+00  5.886059170054E+00
  5.956691880095E+00  6.028172182656E+00  6.100510248848E+00  6.173716371834E+00
  6.247800968296E+00  6.322774579916E+00  6.398647874875E+00  6.475431649373E+00
  6.553136829165E+00  6.631774471115E+00  6.711355764769E+00  6.791892033946E+00
  6.873394738353E+00  6.955875475214E+00  7.039345980916E+00  7.123818132687E+00
  7.209303950279E+00  7.295815597683E+00  7.383365384855E+00  7.471965769473E+00
  7.561629358707E+00  7.652368911011E+00  7.744197337944E+00  7.837127705999E+00
  7.931173238471E+00  8.026347317333E+00  8.122663485141E+00  8.220135446962E+00
  8.318777072326E+00  8.418602397194E+00  8.519625625960E+00  8.621861133472E+00
  8.725323467073E+00  8.830027348678E+00  8.935987676862E+00  9.043219528985E+00
  9.151738163332E+00  9.261559021292E+00  9.372697729548E+00  9.485170102302E+00
  9.598992143530E+00  9.714180049252E+00  9.830750209843E+00  9.948719212362E+00
  1.006810384291E+01  1.018892108902E+01  1.031118814209E+01  1.043492239980E+01
  1.056014146860E+01  1.068686316622E+01  1.081510552421E+01  1.094488679050E+01
  1.107622543199E+01  1.120914013717E+01  1.134364981882E+01  1.147977361665E+01
  1.161753090005E+01  1.175694127085E+01  1.189802456610E+01  1.204080086089E+01
  1.218529047122E+01  1.233151395687E+01  1.247949212436E+01  1.262924602985E+01
  1.278079698221E+01  1.293416654599E+01  1.308937654455E+01  1.324644906308E+01
  1.340540645184E+01  1.356627132926E+01  1.372906658521E+01  1.389381538423E+01
  1.406054116884E+01  1.422926766287E+01  1.440001887482E+01  1.457281910132E+01
  1.474769293054E+01  1.492466524571E+01  1.510376122865E+01  1.528500636340E+01
  1.546842643976E+01  1.565404755704E+01  1.584189612772E+01  1.603199888125E+01
  1.622438286783E+01  1.641907546224E+01  1.661610436779E+01  1.681549762020E+01
  1.701728359164E+01  1.722149099474E+01  1.742814888668E+01  1.763728667332E+01
  1.784893411340E+01  1.806312132276E+01  1.827987877863E+01  1.849923732398E+01
  1.872122817187E+01  1.894588290993E+01  1.917323350485E+01  1.940331230691E+01
  1.963615205459E+01  1.987178587924E+01  2.011024730979E+01  2.035157027751E+01
  2.059578912084E+01  2.084293859029E+01  2.109305385338E+01  2.134617049962E+01
  2.160232454561E+01  2.186155244016E+01  2.212389106944E+01  2.238937776227E+01
  2.265805029542E+01  2.292994689897E+01  2.320510626175E+01  2.348356753690E+01
  2.376537034734E+01  2.405055479151E+01  2.433916144900E+01  2.463123138639E+01
  2.492680616303E+01  2.522592783699E+01  2.552863897103E+01  2.583498263868E+01
  2.614500243035E+01  2.645874245951E+01  2.677624736902E+01  2.709756233745E+01
  2.742273308550E+01  2.775180588253E+01  2.808482755312E+01  2.842184548376E+01
  2.876290762956E+01  2.910806252112E+01  2.945735927137E+01  2.981084758263E+01
  3.016857775362E+01  3.053060068666E+01  3.089696789490E+01  3.126773150964E+01
  3.164294428775E+01  3.202265961921E+01  3.240693153464E+01  3.279581471305E+01
  3.318936448961E+01  3.358763686349E+01  3.399068850585E+01  3.439857676792E+01
  3.481135968913E+01  3.522909600540E+01  3.565184515747E+01  3.607966729936E+01
  3.651262330695E+01  3.695077478663E+01  3.739418408407E+01  3.784291429308E+01
  3.829702926460E+01  3.875659361577E+01  3.922167273916E+01  3.969233281203E+01
  4.016864080578E+01  4.065066449545E+01  4.113847246939E+01  4.163213413902E+01
  4.213171974869E+01  4.263730038568E+01  4.314894799030E+01  4.366673536619E+01
  4.419073619058E+01
</grid-data>
</grid>
<valence-charge total-charge="7" is-unscreening-charge="yes"
 rescaled-to-z-pseudo="no">
<radfunc>
<data npts="457">
  6.802903527902E+00  6.806443081839E+00  6.817020409919E+00  6.834655177892E+00
  6.859148951687E+00  6.891312146172E+00  6.932232110232E+00  6.978990495129E+00
  7.031439740507E+00  7.092436076176E+00  7.160972930766E+00  7.235207746482E+00
  7.324563464571E+00  7.417464409893E+00  7.526500708557E+00  7.634794956405E+00
  7.758755307291E+00  7.875522485252E+00  8.005938925194E+00  8.151435284392E+00
  8.313547106332E+00  8.456295220189E+00  8.611600416228E+00  8.780372381335E+00
  8.963544398315E+00  9.162063298576E+00  9.376876354200E+00  9.549240401575E+00
  9.731674456779E+00  9.924540961669E+00  1.012817771158E+01  1.034288980398E+01
  1.056894040102E+01  1.080654020317E+01  1.105583553557E+01  1.131689495743E+01
  1.158969431944E+01  1.187410021577E+01  1.207002924257E+01  1.227089105020E+01
  1.247654103242E+01  1.268679984552E+01  1.290145038252E+01  1.312023464207E+01
  1.334285050977E+01  1.356894847378E+01  1.379812830199E+01  1.402993571316E+01
  1.426385908080E+01  1.449932621522E+01  1.473570127639E+01  1.497228187771E+01
  1.520829644934E+01  1.544290193785E+01  1.567518192765E+01  1.590414527852E+01
  1.612872538172E+01  1.634778014554E+01  1.656009282798E+01  1.676437384066E+01
  1.695926365228E+01  1.714333692230E+01  1.731510799523E+01  1.747303788201E+01
  1.761554284756E+01  1.774100471087E+01  1.784778294645E+01  1.789365032825E+01
  1.793422865207E+01  1.796931309970E+01  1.799870041700E+01  1.802218951303E+01
  1.803958208753E+01  1.805068328597E+01  1.805530238078E+01  1.805325347767E+01
  1.804435624518E+01  1.802843666564E+01  1.800532780526E+01  1.797487060094E+01
  1.793691466084E+01  1.789131907570E+01  1.783795323739E+01  1.777669766098E+01
  1.770744480617E+01  1.763009989380E+01  1.754458171263E+01  1.745082341147E+01
  1.734877327144E+01  1.723839545278E+01  1.711967071052E+01  1.699259707308E+01
  1.685719047776E+01  1.671348535689E+01  1.656153516834E+01  1.640141286416E+01
  1.623321129120E+01  1.605704351730E+01  1.587304307738E+01  1.568136413349E+01
  1.548218154349E+01  1.527569083319E+01  1.506210806757E+01  1.484166961679E+01
  1.461463181376E+01  1.438127050045E+01  1.414188046093E+01  1.389677474019E+01
  1.364628384830E+01  1.339075485086E+01  1.313055034746E+01  1.286604734083E+01
  1.259763600088E+01  1.232571832844E+01  1.205070672483E+01  1.177302247469E+01
  1.149309415016E+01  1.121135594588E+01  1.092824595505E+01  1.064420439775E+01
  1.035967181359E+01  1.007508723120E+01  9.790886328027E+00  9.507499593819E+00
  9.225350511996E+00  8.944853772742E+00  8.666413531865E+00  8.390421729149E+00
  8.117256479503E+00  7.847280549637E+00  7.580839932261E+00  7.318262528846E+00
  7.059856950985E+00  6.805911449178E+00  6.556692976569E+00  6.312446393823E+00
  6.073393819872E+00  5.839734131812E+00  5.611642615778E+00  5.389270769217E+00
  5.172746253567E+00  4.962172995120E+00  4.757631430628E+00  4.559178893230E+00
  4.366850133368E+00  4.180657968677E+00  4.000594056256E+00  3.826629780372E+00
  3.658717248392E+00  3.496790387631E+00  3.340766135751E+00  3.190545717378E+00
  3.046015999575E+00  2.907050918727E+00  2.773512971174E+00  2.645254759493E+00
  2.522120585610E+00  2.403948080924E+00  2.290569862219E+00  2.181815200401E+00
  2.077511687005E+00  1.977486881017E+00  1.881570094586E+00  1.789594828130E+00
  1.701401534596E+00  1.616838728595E+00  1.535763922199E+00  1.458044353583E+00
  1.383557487669E+00  1.312191267486E+00  1.243844098873E+00  1.178423886513E+00
  1.115844186207E+00  1.056018812831E+00  9.988620220923E-01  9.442886104064E-01
  8.922140548483E-01  8.425546440177E-01  7.952275999180E-01  7.501511909778E-01
  7.072448363648E-01  6.664292017690E-01  6.276262868470E-01  5.907595045419E-01
  5.557537525065E-01  5.225354768721E-01  4.910327286180E-01  4.611752128046E-01
  4.328943309446E-01  4.061232167894E-01  3.807967658156E-01  3.568516586989E-01
  3.342263790635E-01  3.128612257978E-01  2.926983202257E-01  2.736816084198E-01
  2.557568589431E-01  2.388716563010E-01  2.229753903793E-01  2.080192421438E-01
  1.939561658669E-01  1.807408681448E-01  1.683297839590E-01  1.566810500336E-01
  1.457544757279E-01  1.355115117027E-01  1.259152165855E-01  1.169302218568E-01
  1.085226951697E-01  1.006603023085E-01  9.331216798247E-02  8.644883564570E-02
  8.004222652210E-02  7.406559800995E-02  6.849350162959E-02  6.330174067075E-02
  5.846732768667E-02  5.396844197436E-02  4.978438717107E-02  4.589554908897E-02
  4.228335390102E-02  3.893022678283E-02  3.581955110639E-02  3.293562827350E-02
  3.026363826822E-02  2.778960099960E-02  2.550033849795E-02  2.338343802015E-02
  2.142721611214E-02  1.962068366910E-02  1.795351202746E-02  1.641600011552E-02
  1.499904268373E-02  1.369409962936E-02  1.249316642471E-02  1.138874565280E-02
  1.037381964954E-02  9.441824246818E-03  8.586623606930E-03  7.802486134818E-03
  7.084061451381E-03  6.426358407984E-03  5.824724119708E-03  5.274823992554E-03
  4.772622717879E-03  4.314366205724E-03  3.896564427380E-03  3.515975136566E-03
  3.169588437825E-03  2.854612170338E-03  2.568458075093E-03  2.308728713386E-03
  2.073205104789E-03  1.859835053131E-03  1.666722129533E-03  1.492115282211E-03
  1.334399043510E-03  1.192084305474E-03  1.063799636208E-03  9.482831101997E-04
  8.443746268160E-04  7.510086921801E-04  6.672076406643E-04  5.920752732532E-04
  5.247908910313E-04  4.646037030310E-04  4.108275886257E-04  3.628361955731E-04
  3.200583556944E-04  2.819738010198E-04  2.481091640343E-04  2.180342464272E-04
  1.913585414725E-04  1.677279958627E-04  1.468219974730E-04  1.283505761559E-04
  1.120518052601E-04  9.768939213100E-05  8.505044638688E-05  7.394341528145E-05
  6.419617595210E-05  5.565427482748E-05  4.817930492090E-05  4.164741217317E-05
  3.594792243072E-05  3.098208105217E-05  2.666189753166E-05  2.290908790900E-05
  1.965410810769E-05  1.683527170096E-05  1.439794595432E-05  1.229382033085E-05
  1.048024197262E-05  8.919612988020E-06  7.578844681087E-06  6.428864154372E-06
  5.444169001772E-06  4.602426082115E-06  3.884110627746E-06  3.272182195032E-06
  2.751794205569E-06  2.310034057775E-06  1.935691008625E-06  1.619049234478E-06
  1.351703678384E-06  1.126396479057E-06  9.368719539287E-07  7.777482756548E-07
  6.444041382439E-07  5.328788559282E-07  4.397844752388E-07  3.622286088090E-07
  2.977468185220E-07  2.442434860918E-07  1.999402113858E-07  1.633308731268E-07
  1.331425734532E-07  1.083017675356E-07  8.790495246135E-08  7.119335627859E-08
  5.753112884288E-08  4.638659130267E-08  3.731615108154E-08  2.995053442433E-08
  2.398302932884E-08  1.915946832566E-08  1.526971342279E-08  1.214043491325E-08
  9.629001947184E-09  7.618326078178E-09  6.012519668213E-09  4.733249326175E-09
  3.716680690621E-09  2.910925063856E-09  2.273910859625E-09  1.771613723932E-09
  1.376588695937E-09  1.066756047309E-09  8.243996141449E-10  6.353426428280E-10
  4.882715253899E-10  3.741824046996E-10  2.859295786108E-10  2.178580083910E-10
  1.655051148505E-10  1.253594916844E-10  9.466623811837E-11  7.127036592826E-11
  5.349118711130E-11  4.002198792139E-11  2.984961651375E-11  2.219157682334E-11
  1.644502185762E-11  1.214679652147E-11  8.942370411899E-12  6.561287466191E-12
  4.797929596424E-12  3.496457570823E-12  2.539180150520E-12  1.837513022102E-12
  1.325010168064E-12  9.520052583012E-13  6.815056396999E-13  4.860561836485E-13
  0.000000000000E+00  0.000000000000E+00  0.000000000000E+00  0.000000000000E+00
  0.000000000000E+00  0.000000000000E+00  0.000000000000E+00  0.000000000000E+00
  0.000000000000E+00  0.000000000000E+00  0.000000000000E+00  0.000000000000E+00
  0.000000000000E+00  0.000000000000E+00  0.000000000000E+00  0.000000000000E+00
  0.000000000000E+00  0.000000000000E+00  0.000000000000E+00  0.000000000000E+00
  0.000000000000E+00  0.000000000000E+00  0.000000000000E+00  0.000000000000E+00
  0.000000000000E+00  0.000000000000E+00  0.000000000000E+00  0.000000000000E+00
  0.000000000000E+00  0.000000000000E+00  0.000000000000E+00  0.000000000000E+00
  0.000000000000E+00  0.000000000000E+00  0.000000000000E+00  0.000000000000E+00
  0.000000000000E+00  0.000000000000E+00  0.000000000000E+00  0.000000000000E+00
  0.000000000000E+00  0.000000000000E+00  0.000000000000E+00  0.000000000000E+00
  0.000000000000E+00  0.000000000000E+00  0.000000000000E+00  0.000000000000E+00
  0.000000000000E+00  0.000000000000E+00  0.000000000000E+00  0.000000000000E+00
  0.000000000000E+00  0.000000000000E+00  0.000000000000E+00  0.000000000000E+00
  0.000000000000E+00  0.000000000000E+00  0.000000000000E+00  0.000000000000E+00
  0.000000000000E+00  0.000000000000E+00  0.000000000000E+00  0.000000000000E+00
  0.000000000000E+00  0.000000000000E+00  0.000000000000E+00  0.000000000000E+00
  0.000000000000E+00  0.000000000000E+00  0.000000000000E+00  0.000000000000E+00
  0.000000000000E+00  0.000000000000E+00  0.000000000000E+00  0.000000000000E+00
  0.000000000000E+00  0.000000000000E+00  0.000000000000E+00  0.000000000000E+00
  0.000000000000E+00  0.000000000000E+00  0.000000000000E+00  0.000000000000E+00
  0.000000000000E+00  0.000000000000E+00  0.000000000000E+00  0.000000000000E+00
  0.000000000000E+00  0.000000000000E+00  0.000000000000E+00  0.000000000000E+00
  0.000000000000E+00
</data>
</radfunc>
</valence-charge>
<pseudocore-charge matching-radius="0.332139945566"
 number-of-continuous-derivatives="4">
<annotation model-charge-form="Teter function with specified parameters" />
<radfunc>
<data npts="290">
  4.308550839504E+01  4.307632846784E+01  4.304889422829E+01  4.300315000178E+01
  4.293960281754E+01  4.285613869925E+01  4.274991885743E+01  4.262849983673E+01
  4.249224704278E+01  4.233371518564E+01  4.215548735204E+01  4.196232378263E+01
  4.172964897898E+01  4.148754755592E+01  4.120313852939E+01  4.092038299914E+01
  4.059637054542E+01  4.029080738136E+01  3.994911166664E+01  3.956737626645E+01
  3.914136942936E+01  3.876563768251E+01  3.835618433222E+01  3.791040911620E+01
  3.742560062649E+01  3.689895215376E+01  3.632758343871E+01  3.586795033742E+01
  3.538027802490E+01  3.486333559142E+01  3.431591270476E+01  3.373683423327E+01
  3.312497710047E+01  3.247928954164E+01  3.179881291570E+01  3.108270619891E+01
  3.033027324758E+01  2.954099286298E+01  2.899417076207E+01  2.843079338395E+01
  2.785087933050E+01  2.725450527780E+01  2.664181127066E+01  2.601300614662E+01
  2.536837304769E+01  2.470827496949E+01  2.403316028816E+01  2.334356819559E+01
  2.264013396241E+01  2.192359393738E+01  2.119479017985E+01  2.045467461000E+01
  1.970431255008E+01  1.894488551777E+01  1.817769312237E+01  1.740415390465E+01
  1.662580495338E+01  1.584430012570E+01  1.506140669616E+01  1.427900026032E+01
  1.349905772466E+01  1.272364822606E+01  1.195492184190E+01  1.119509597711E+01
  1.044643934808E+01  9.711253525911E+00  8.991852053507E+00  8.638791032864E+00
  8.290537213281E+00  7.947372447260E+00  7.609574594285E+00  7.277416622803E+00
  6.951165689201E+00  6.631082197244E+00  6.317418841817E+00  6.010419641234E+00
  5.710318962778E+00  5.417340546544E+00  5.131696533040E+00  4.853586500412E+00
  4.583196517493E+00  4.320698219238E+00  4.066247911432E+00  3.819985711798E+00
  3.582034734908E+00  3.352500328452E+00  3.131469368568E+00  2.919009621982E+00
  2.715169182694E+00  2.519975990873E+00  2.333437441419E+00  2.155540089389E+00
  1.986249459121E+00  1.825509963375E+00  1.673244938275E+00  1.529356799084E+00
  1.393727321058E+00  1.266218048678E+00  1.146670835536E+00  1.034908515967E+00
  9.307357082872E-01  8.339397481332E-01  7.442917489662E-01  6.615477852896E-01
  5.854501925729E-01  5.157289762722E-01  4.521033207279E-01  3.942831871166E-01
  3.419709880746E-01  2.948633251099E-01  2.526527735259E-01  2.150296983076E-01
  1.816840833216E-01  1.523073552707E-01  1.265941831678E-01  1.042442336776E-01
  8.496386254637E-02  6.846772253071E-02  5.448026875794E-02  4.273714332883E-02
  3.298642220821E-02  2.498970904739E-02  1.852306253361E-02  1.337774615202E-02
  9.360791845794E-03  6.295371936231E-03  4.020976767255E-03  2.393398813008E-03
  1.284527365068E-03  5.819613232964E-04  1.884509691285E-04  2.118281535579E-05
  1.092461230065E-05  1.010502566615E-04  2.464666090968E-04  4.124659987498E-04
  5.735294059012E-04  7.121059092993E-04  8.173939203630E-04  8.841489797132E-04
  9.115414617763E-04  9.020854439372E-04  8.606572964896E-04  7.936193123362E-04
  7.080600192363E-04  6.111588226967E-04  5.096784532230E-04  4.095844902848E-04
  3.157871675353E-04  2.319968910228E-04  1.606815790345E-04  1.031111987292E-04
  5.947284793163E-05  2.903849719890E-05  1.036711762923E-05  1.523382425323E-06
  2.964091492446E-07  4.404024473844E-06  1.167066142456E-05  2.017008120463E-05
  2.832745974033E-05  3.497878735101E-05  3.938878779547E-05  4.123146890419E-05
  4.053979319919E-05  3.763266265185E-05  3.302835517897E-05  2.735369706963E-05
  2.125763232038E-05  1.533654487758E-05  1.007684615346E-05  5.818144916463E-06
  2.737984900547E-06  8.568912416586E-07  6.052190768050E-08  1.342532685134E-07
  8.046668257599E-07  1.782208300314E-06  2.799749225754E-06  3.642810893347E-06
  4.168663271350E-06  4.313192823453E-06  4.086124707830E-06  3.556671723901E-06
  2.832780680421E-06  2.037728280606E-06  1.287828334830E-06  6.744769534659E-07
  2.527874698737E-07  3.782047242630E-08  0.000000000000E+00  0.000000000000E+00
  0.000000000000E+00  0.000000000000E+00  0.000000000000E+00  0.000000000000E+00
  0.000000000000E+00  0.000000000000E+00  0.000000000000E+00  0.000000000000E+00
  0.000000000000E+00  0.000000000000E+00  0.000000000000E+00  0.000000000000E+00
  0.000000000000E+00  0.000000000000E+00  0.000000000000E+00  0.000000000000E+00
  0.000000000000E+00  0.000000000000E+00  0.000000000000E+00  0.000000000000E+00
  0.000000000000E+00  0.000000000000E+00  0.000000000000E+00  0.000000000000E+00
  0.000000000000E+00  0.000000000000E+00  0.000000000000E+00  0.000000000000E+00
  0.000000000000E+00  0.000000000000E+00  0.000000000000E+00  0.000000000000E+00
  0.000000000000E+00  0.000000000000E+00  0.000000000000E+00  0.000000000000E+00
  0.000000000000E+00  0.000000000000E+00  0.000000000000E+00  0.000000000000E+00
  0.000000000000E+00  0.000000000000E+00  0.000000000000E+00  0.000000000000E+00
  0.000000000000E+00  0.000000000000E+00  0.000000000000E+00  0.000000000000E+00
  0.000000000000E+00  0.000000000000E+00  0.000000000000E+00  0.000000000000E+00
  0.000000000000E+00  0.000000000000E+00  0.000000000000E+00  0.000000000000E+00
  0.000000000000E+00  0.000000000000E+00  0.000000000000E+00  0.000000000000E+00
  0.000000000000E+00  0.000000000000E+00  0.000000000000E+00  0.000000000000E+00
  0.000000000000E+00  0.000000000000E+00  0.000000000000E+00  0.000000000000E+00
  0.000000000000E+00  0.000000000000E+00  0.000000000000E+00  0.000000000000E+00
  0.000000000000E+00  0.000000000000E+00  0.000000000000E+00  0.000000000000E+00
  0.000000000000E+00  0.000000000000E+00  0.000000000000E+00  0.000000000000E+00
  0.000000000000E+00  0.000000000000E+00  0.000000000000E+00  0.000000000000E+00
  0.000000000000E+00  0.000000000000E+00  0.000000000000E+00  0.000000000000E+00
  0.000000000000E+00  0.000000000000E+00  0.000000000000E+00  0.000000000000E+00
  0.000000000000E+00  0.000000000000E+00  0.000000000000E+00  0.000000000000E+00
  0.000000000000E+00  0.000000000000E+00
</data>
</radfunc>
</pseudocore-charge>
<semilocal-potentials set="scalar_relativistic">
<slps n="2" l="s" rc="1.30942325042" eref="-1.09878940582">
<radfunc>
<data npts="290">
 -8.906901557915E+00 -8.907053469306E+00 -8.907507694577E+00 -8.908265908057E+00
 -8.909320933265E+00 -8.910709667286E+00 -8.912482007623E+00 -8.914514760324E+00
 -8.916804457967E+00 -8.919479940777E+00 -8.922502365658E+00 -8.925795336188E+00
 -8.929785536975E+00 -8.933964614348E+00 -8.938909114084E+00 -8.943862105599E+00
 -8.949582942439E+00 -8.955021728151E+00 -8.961153291057E+00 -8.968064577104E+00
 -8.975852653587E+00 -8.982786593925E+00 -8.990411214735E+00 -8.998792120144E+00
 -9.008000002012E+00 -9.018110666479E+00 -9.029204929772E+00 -9.038222410913E+00
 -9.047878881939E+00 -9.058213189657E+00 -9.069265104322E+00 -9.081075005096E+00
 -9.093683478869E+00 -9.107130817972E+00 -9.121456400603E+00 -9.136697936202E+00
 -9.152890556418E+00 -9.170065730684E+00 -9.182075056298E+00 -9.194539329923E+00
 -9.207463394531E+00 -9.220850352597E+00 -9.234701294572E+00 -9.249015001704E+00
 -9.263787621875E+00 -9.279012317340E+00 -9.294678883387E+00 -9.310773337113E+00
 -9.327277475931E+00 -9.344168405639E+00 -9.361418038480E+00 -9.378992562129E+00
 -9.396851881212E+00 -9.414949033891E+00 -9.433229586756E+00 -9.451631012781E+00
 -9.470082057908E+00 -9.488502103542E+00 -9.506800533687E+00 -9.524876117094E+00
 -9.542616416632E+00 -9.559897239727E+00 -9.576582145655E+00 -9.592522026880E+00
 -9.607554783239E+00 -9.621505108694E+00 -9.634184411125E+00 -9.639984875349E+00
 -9.645390885761E+00 -9.650375192788E+00 -9.654909762397E+00 -9.658965794648E+00
 -9.662513745706E+00 -9.665523353399E+00 -9.667963666429E+00 -9.669803077388E+00
 -9.671009359620E+00 -9.671549708089E+00 -9.671390784278E+00 -9.670498765255E+00
 -9.668839396970E+00 -9.666378051823E+00 -9.663079790634E+00 -9.658909429021E+00
 -9.653831608274E+00 -9.647810870730E+00 -9.640811739698E+00 -9.632798803913E+00
 -9.623736806449E+00 -9.613590738036E+00 -9.602325934589E+00 -9.589908178741E+00
 -9.576303805004E+00 -9.561479808170E+00 -9.545403954324E+00 -9.528044893759E+00
 -9.509372274903E+00 -9.489356858169E+00 -9.467970628479E+00 -9.445186904983E+00
 -9.420980446373E+00 -9.395327549945E+00 -9.368206142460E+00 -9.339595860747E+00
 -9.309478119875E+00 -9.277836166772E+00 -9.244655117152E+00 -9.209921973791E+00
 -9.173625624392E+00 -9.135756817521E+00 -9.096308115543E+00 -9.055273823901E+00
 -9.012649896642E+00 -8.968433818684E+00 -8.922624466043E+00 -8.875221945922E+00
 -8.826227419353E+00 -8.775642909917E+00 -8.723471102854E+00 -8.669715139734E+00
 -8.614378414710E+00 -8.557464379183E+00 -8.498976362578E+00 -8.438917417656E+00
 -8.377290199648E+00 -8.314096889109E+00 -8.249339169117E+00 -8.183018267930E+00
 -8.115135078658E+00 -8.045690367765E+00 -7.974685084224E+00 -7.902120780974E+00
 -7.828000159764E+00 -7.752327749596E+00 -7.675110727683E+00 -7.596359890040E+00
 -7.516090776595E+00 -7.434324952876E+00 -7.351091446886E+00 -7.266428335629E+00
 -7.180384471200E+00 -7.093021331109E+00 -7.004414971425E+00 -6.914658054750E+00
 -6.823861917856E+00 -6.732158636042E+00 -6.639703033147E+00 -6.546674577711E+00
 -6.453279097422E+00 -6.359750235918E+00 -6.266350568763E+00 -6.173372289492E+00
 -6.081137372751E+00 -5.989997120347E+00 -5.900330998465E+00 -5.812544681023E+00
 -5.727067226065E+00 -5.644347329751E+00 -5.564848626381E+00 -5.489044033231E+00