<?xml version="1.0" encoding="UTF-8" ?>
<psml version="1.1" energy_unit="hartree" length_unit="bohr"
 uuid="0f805920-be45-11e7-5114-bd50e076577a"
 xmlns="http://esl.cecam.org/PSML/ns/1.1">
<provenance creator="ONCVPSP-3.3.0+psml-3.3.0-73 (scalar-relativistic)"
 date="2017-10-31">
<annotation action="semilocal-pseudopotential-generation"
 action-cont="projectors-generation" />
<input-file name="oncvpsp-input">
<![CDATA[# atsym z nc nv iexc psfile
Pd 46 6 3 4 upf
# n l f
1 0 2.0
2 0 2.0
2 1 6.0
3 0 2.0
3 1 6.0
3 2 10.0
4 0 2.0
4 1 6.0
4 2 10.0
# lmax
2
# l rc ep ncon nbas qcut
0 1.4 0.0 4 7 8.8
1 1.45 0.0 4 7 8.8
2 1.55 0.0 4 7 8.8
# lloc lpopt rc5 dvloc0
4 5 1.4 0.0
# l nproj debl
0 2 3.0
1 2 1.8
2 2 1.5
# icmod fcfact
3 7.0 1.23
# epsh1 epsh2 depsh
-14.0 12.0 0.02
# rlmax drl
6.0 0.01
 0
]]>
</input-file>
</provenance>
<pseudo-atom-spec atomic-label="Pd" atomic-number="46" z-pseudo="18"
 flavor="Hamann&apos;s oncvpsp" relativity="scalar" spin-dft="no"
 core-corrections="yes">
<annotation pseudo-energy="-128.216138829" />
<exchange-correlation>
<annotation oncvpsp-xc-code="4" oncvpsp-xc-type="GGA -- Perdew-Burke-Ernzerhof" />
<libxc-info number-of-functionals="2">
<functional name="Perdew, Burke &amp; Ernzerhof (GGA)" type="exchange" id="101" />
<functional name="Perdew, Burke &amp; Ernzerhof (GGA)" type="correlation"
 id="130" />
</libxc-info>
</exchange-correlation>
<valence-configuration total-valence-charge="18">
<shell n="4" l="s" occupation="2" />
<shell n="4" l="p" occupation="6" />
<shell n="4" l="d" occupation="10" />
</valence-configuration>
</pseudo-atom-spec>
<grid npts="457">
<annotation type="sampled from oncvpsp log grid"
 recipe="r(i:1..N) = r1*exp(a*(i-1)) + r=0; resampled"
 recipe-cont="r1: scale; a: step" scale="0.108695652174E-04"
 step="0.119285708653E-01" delta="0.500000000000E-02" rmax="44.3145279533" />
<grid-data>
  0.000000000000E+00  5.000294685022E-03  1.010754857899E-02  1.516293462264E-02
  2.018903507460E-02  2.532475777372E-02  3.065021322792E-02  3.579152166903E-02
  4.080992534112E-02  4.598020733843E-02  5.119122683222E-02  5.631701633006E-02
  6.195605232738E-02  6.735150821743E-02  7.321682852214E-02  7.864914178183E-02
  8.448450483140E-02  8.967670148086E-02  9.518799695324E-02  1.010380022274E-01
  1.072475335217E-01  1.124888205185E-01  1.179862540997E-01  1.237523523875E-01
  1.298002452770E-01  1.361437043330E-01  1.427971741499E-01  1.479998075521E-01
  1.533919922845E-01  1.589806344088E-01  1.647728916001E-01  1.707761823144E-01
  1.769981952897E-01  1.834468993934E-01  1.901305538283E-01  1.970577187110E-01
  2.042372660348E-01  2.116783910330E-01  2.167891541061E-01  2.220233114428E-01
  2.273838422743E-01  2.328737977622E-01  2.384963027354E-01  2.442545574686E-01
  2.501518395041E-01  2.561915055171E-01  2.623769932263E-01  2.687118233508E-01
  2.751996016138E-01  2.818440207951E-01  2.886488628332E-01  2.956180009774E-01
  3.027554019930E-01  3.100651284188E-01  3.175513408793E-01  3.252183004535E-01
  3.330703710996E-01  3.411120221395E-01  3.493478308020E-01  3.577824848289E-01
  3.664207851426E-01  3.752676485791E-01  3.843281106864E-01  3.936073285908E-01
  4.031105839323E-01  4.128432858707E-01  4.228109741648E-01  4.278847058548E-01
  4.330193223250E-01  4.382155541929E-01  4.434741408433E-01  4.487958305334E-01
  4.541813804998E-01  4.596315570658E-01  4.651471357506E-01  4.707289013796E-01
  4.763776481961E-01  4.820941799745E-01  4.878793101342E-01  4.937338618558E-01
  4.996586681980E-01  5.056545722164E-01  5.117224270830E-01  5.178630962080E-01
  5.240774533625E-01  5.303663828029E-01  5.367307793965E-01  5.431715487493E-01
  5.496896073342E-01  5.562858826223E-01  5.629613132137E-01  5.697168489723E-01
  5.765534511600E-01  5.834720925739E-01  5.904737576848E-01  5.975594427770E-01
  6.047301560903E-01  6.119869179634E-01  6.193307609790E-01  6.267627301107E-01
  6.342838828720E-01  6.418952894665E-01  6.495980329401E-01  6.573932093354E-01
  6.652819278474E-01  6.732653109816E-01  6.813444947133E-01  6.895206286499E-01
  6.977948761937E-01  7.061684147080E-01  7.146424356845E-01  7.232181449127E-01
  7.318967626517E-01  7.406795238035E-01  7.495676780892E-01  7.585624902262E-01
  7.676652401089E-01  7.768772229902E-01  7.861997496661E-01  7.956341466621E-01
  8.051817564221E-01  8.148439374991E-01  8.246220647491E-01  8.345175295261E-01
  8.445317398804E-01  8.546661207590E-01  8.649221142081E-01  8.753011795786E-01
  8.858047937335E-01  8.964344512583E-01  9.071916646734E-01  9.180779646495E-01
  9.290949002253E-01  9.402440390280E-01  9.515269674964E-01  9.629452911063E-01
  9.745006345996E-01  9.861946422148E-01  9.980289779214E-01  1.010005325656E+00
  1.022125389564E+00  1.034390894239E+00  1.046803584970E+00  1.059365227990E+00
  1.072077610725E+00  1.084942542054E+00  1.097961852559E+00  1.111137394790E+00
  1.124471043527E+00  1.137964696049E+00  1.151620272402E+00  1.165439715671E+00
  1.179424992259E+00  1.193578092166E+00  1.207901029272E+00  1.222395841623E+00
  1.237064591723E+00  1.251909366823E+00  1.266932279225E+00  1.282135466576E+00
  1.297521092175E+00  1.313091345281E+00  1.328848441424E+00  1.344794622721E+00
  1.360932158194E+00  1.377263344092E+00  1.393790504221E+00  1.410515990272E+00
  1.427442182155E+00  1.444571488341E+00  1.461906346201E+00  1.479449222356E+00
  1.497202613024E+00  1.515169044380E+00  1.533351072913E+00  1.551751285788E+00
  1.570372301217E+00  1.589216768832E+00  1.608287370058E+00  1.627586818499E+00
  1.647117860321E+00  1.666883274644E+00  1.686885873940E+00  1.707128504427E+00
  1.727614046480E+00  1.748345415038E+00  1.769325560019E+00  1.790557466739E+00
  1.812044156340E+00  1.833788686216E+00  1.855794150450E+00  1.878063680256E+00
  1.900600444419E+00  1.923407649752E+00  1.946488541549E+00  1.969846404048E+00
  1.993484560896E+00  2.017406375627E+00  2.041615252134E+00  2.066114635160E+00
  2.090908010782E+00  2.115998906911E+00  2.141390893794E+00  2.167087584520E+00
  2.193092635534E+00  2.219409747160E+00  2.246042664126E+00  2.272995176096E+00
  2.300271118209E+00  2.327874371628E+00  2.355808864087E+00  2.384078570456E+00
  2.412687513302E+00  2.441639763461E+00  2.470939440623E+00  2.500590713910E+00
  2.530597802477E+00  2.560964976107E+00  2.591696555820E+00  2.622796914490E+00
  2.654270477464E+00  2.686121723193E+00  2.718355183872E+00  2.750975446078E+00
  2.783987151431E+00  2.817394997248E+00  2.851203737215E+00  2.885418182062E+00
  2.920043200247E+00  2.955083718650E+00  2.990544723273E+00  3.026431259953E+00
  3.062748435072E+00  3.099501416293E+00  3.136695433289E+00  3.174335778488E+00
  3.212427807830E+00  3.250976941524E+00  3.289988664822E+00  3.329468528800E+00
  3.369422151146E+00  3.409855216959E+00  3.450773479563E+00  3.492182761318E+00
  3.534088954453E+00  3.576498021907E+00  3.619415998170E+00  3.662848990148E+00
  3.706803178030E+00  3.751284816166E+00  3.796300233960E+00  3.841855836767E+00
  3.887958106809E+00  3.934613604090E+00  3.981828967339E+00  4.029610914947E+00
  4.077966245927E+00  4.126901840878E+00  4.176424662968E+00  4.226541758924E+00
  4.277260260031E+00  4.328587383152E+00  4.380530431749E+00  4.433096796930E+00
  4.486293958494E+00  4.540129485995E+00  4.594611039827E+00  4.649746372305E+00
  4.705543328773E+00  4.762009848718E+00  4.819153966903E+00  4.876983814506E+00
  4.935507620280E+00  4.994733711723E+00  5.054670516264E+00  5.115326562459E+00
  5.176710481208E+00  5.238831006983E+00  5.301696979067E+00  5.365317342816E+00
  5.429701150929E+00  5.494857564741E+00  5.560795855517E+00  5.627525405784E+00
  5.695055710653E+00  5.763396379181E+00  5.832557135731E+00  5.902547821360E+00
  5.973378395216E+00  6.045058935959E+00  6.117599643190E+00  6.191010838909E+00
  6.265302968975E+00  6.340486604603E+00  6.416572443858E+00  6.493571313185E+00
  6.571494168943E+00  6.650352098970E+00  6.730156324158E+00  6.810918200048E+00
  6.892649218448E+00  6.975361009070E+00  7.059065341179E+00  7.143774125273E+00
  7.229499414776E+00  7.316253407753E+00  7.404048448646E+00  7.492897030030E+00
  7.582811794390E+00  7.673805535923E+00  7.765891202354E+00  7.859081896782E+00
  7.953390879544E+00  8.048831570098E+00  8.145417548939E+00  8.243162559527E+00
  8.342080510241E+00  8.442185476364E+00  8.543491702080E+00  8.646013602505E+00
  8.749765765735E+00  8.854762954924E+00  8.961020110383E+00  9.068552351708E+00
  9.177374979928E+00  9.287503479688E+00  9.398953521444E+00  9.511740963701E+00
  9.625881855266E+00  9.741392437529E+00  9.858289146779E+00  9.976588616540E+00
  1.009630767994E+01  1.021746337210E+01  1.034007293256E+01  1.046415380775E+01
  1.058972365345E+01  1.071680033729E+01  1.084540194134E+01  1.097554676463E+01
  1.110725332581E+01  1.124054036572E+01  1.137542685011E+01  1.151193197231E+01
  1.165007515597E+01  1.178987605785E+01  1.193135457054E+01  1.207453082539E+01
  1.221942519529E+01  1.236605829764E+01  1.251445099721E+01  1.266462440917E+01
  1.281659990208E+01  1.297039910091E+01  1.312604389012E+01  1.328355641680E+01
  1.344295909380E+01  1.360427460293E+01  1.376752589816E+01  1.393273620894E+01
  1.409992904345E+01  1.426912819197E+01  1.444035773027E+01  1.461364202304E+01
  1.478900572731E+01  1.496647379604E+01  1.514607148159E+01  1.532782433937E+01
  1.551175823145E+01  1.569789933022E+01  1.588627412219E+01  1.607690941165E+01
  1.626983232459E+01  1.646507031249E+01  1.666265115624E+01  1.686260297011E+01
  1.706495420575E+01  1.726973365622E+01  1.747697046010E+01  1.768669410562E+01
  1.789893443488E+01  1.811372164810E+01  1.833108630788E+01  1.855105934357E+01
  1.877367205570E+01  1.899895612037E+01  1.922694359381E+01  1.945766691694E+01
  1.969115891994E+01  1.992745282698E+01  2.016658226090E+01  2.040858124803E+01
  2.065348422301E+01  2.090132603369E+01  2.115214194609E+01  2.140596764944E+01
  2.166283926124E+01  2.192279333237E+01  2.218586685236E+01  2.245209725459E+01
  2.272152242164E+01  2.299418069070E+01  2.327011085899E+01  2.354935218930E+01
  2.383194441557E+01  2.411792774856E+01  2.440734288154E+01  2.470023099612E+01
  2.499663376807E+01  2.529659337329E+01  2.560015249377E+01  2.590735432369E+01
  2.621824257558E+01  2.653286148649E+01  2.685125582432E+01  2.717347089421E+01
  2.749955254495E+01  2.782954717548E+01  2.816350174159E+01  2.850146376249E+01
  2.884348132764E+01  2.918960310357E+01  2.953987834081E+01  2.989435688090E+01
  3.025308916347E+01  3.061612623344E+01  3.098351974824E+01  3.135532198522E+01
  3.173158584904E+01  3.211236487923E+01  3.249771325778E+01  3.288768581687E+01
  3.328233804667E+01  3.368172610323E+01  3.408590681647E+01  3.449493769827E+01
  3.490887695065E+01  3.532778347406E+01  3.575171687575E+01  3.618073747826E+01
  3.661490632799E+01  3.705428520393E+01  3.749893662638E+01  3.794892386589E+01
  3.840431095228E+01  3.886516268371E+01  3.933154463592E+01  3.980352317155E+01
  4.028116544961E+01  4.076453943500E+01  4.125371390822E+01  4.174875847512E+01
  4.224974357682E+01  4.275674049974E+01  4.326982138574E+01  4.378905924237E+01
  4.431452795328E+01
</grid-data>
</grid>
<valence-charge total-charge="18" is-unscreening-charge="yes"
 rescaled-to-z-pseudo="no">
<radfunc>
<data npts="457">
  1.408592978392E+00  1.410533081075E+00  1.416520673641E+00  1.426435578816E+00
  1.440228368054E+00  1.458377998311E+00  1.481531793873E+00  1.508075561660E+00
  1.537960196070E+00  1.572862406033E+00  1.612270057998E+00  1.655183540818E+00
  1.707157720821E+00  1.761568138248E+00  1.825921151663E+00  1.890369379708E+00
  1.964802476582E+00  2.035572005649E+00  2.115378019370E+00  2.205379798680E+00
  2.306885479098E+00  2.397358294652E+00  2.496975531840E+00  2.606662656422E+00
  2.727437312035E+00  2.860417659771E+00  3.006831131485E+00  3.126261571849E+00
  3.254616904402E+00  3.392554026441E+00  3.540774443709E+00  3.700026244450E+00
  3.871105875985E+00  4.054859631948E+00  4.252184736426E+00  4.464029885402E+00
  4.691395075538E+00  4.935330515137E+00  5.107700267615E+00  5.288258247182E+00
  5.477349063579E+00  5.675324567736E+00  5.882542790273E+00  6.099366647147E+00
  6.326162382211E+00  6.563297713870E+00  6.811139650339E+00  7.070051935474E+00
  7.340392084640E+00  7.622507967869E+00  7.916733895609E+00  8.223386160902E+00
  8.542757991012E+00  8.875113861427E+00  9.220683126239E+00  9.579652921105E+00
  9.952160298895E+00  1.033828356387E+01  1.073803277822E+01  1.115133942543E+01
  1.157804522871E+01  1.201789013965E+01  1.247049953377E+01  1.293537067453E+01
  1.341185853812E+01  1.389916112588E+01  1.439630443254E+01  1.464821121293E+01
  1.490212728371E+01  1.515787578637E+01  1.541526630781E+01  1.567409444133E+01
  1.593414136378E+01  1.619517343266E+01  1.645694180690E+01  1.671918209559E+01
  1.698161403894E+01  1.724394122619E+01  1.750585085543E+01  1.776701354029E+01
  1.802708316917E+01  1.828569682233E+01  1.854247475282E+01  1.879702043719E+01
  1.904892070199E+01  1.929774593236E+01  1.954305036902E+01  1.978437249990E+01
  2.002123555263E+01  2.025314809428E+01  2.047960474410E+01  2.070008700530E+01
  2.091406422130E+01  2.112099466144E+01  2.132032674106E+01  2.151150037972E+01
  2.169394850120E+01  2.186709867774E+01  2.203037492035E+01  2.218319961572E+01
  2.232499560961E+01  2.245518843474E+01  2.257320868036E+01  2.267849449897E+01
  2.277049424397E+01  2.284866923064E+01  2.291249661064E+01  2.296147234869E+01
  2.299511428797E+01  2.301296528870E+01  2.301459642240E+01  2.299961020234E+01
  2.296764382827E+01  2.291837242208E+01  2.285151222834E+01  2.276682375254E+01
  2.266411480768E+01  2.254324343839E+01  2.240412069061E+01  2.224671319381E+01
  2.207104552165E+01  2.187720229719E+01  2.166533000820E+01  2.143563849909E+01
  2.118840210637E+01  2.092396040666E+01  2.064271854757E+01  2.034514713486E+01
  2.003178165215E+01  1.970322139322E+01  1.936012789126E+01  1.900322283419E+01
  1.863328546068E+01  1.825114943730E+01  1.785769922336E+01  1.745386593705E+01
  1.704062274287E+01  1.661897978791E+01  1.618997872130E+01  1.575468683856E+01
  1.531419089902E+01  1.486959067140E+01  1.442199226839E+01  1.397250133660E+01
  1.352221617264E+01  1.307222084008E+01  1.262357836428E+01  1.217732408393E+01
  1.173445923795E+01  1.129594486569E+01  1.086269609556E+01  1.043557689355E+01
  1.001539533779E+01  9.602899478811E+00  9.198773837198E+00  8.803636581647E+00
  8.418037420146E+00  8.042456226422E+00  7.677302412127E+00  7.322915043299E+00
  6.979563687336E+00  6.647449964375E+00  6.326709764847E+00  6.017416083228E+00
  5.719582406988E+00  5.433166589633E+00  5.158075127856E+00  4.894167755432E+00
  4.641262534783E+00  4.399142128884E+00  4.167560608623E+00  3.946248507762E+00
  3.734920663435E+00  3.533285467442E+00  3.341047220268E+00  3.157907964132E+00
  2.983568553398E+00  2.817728384363E+00  2.660084814697E+00  2.510334425750E+00
  2.368174692354E+00  2.233305060668E+00  2.105428078124E+00  1.984250372166E+00
  1.869483515078E+00  1.760844777315E+00  1.658057776198E+00  1.560853026307E+00
  1.468968398097E+00  1.382149491267E+00  1.300149929348E+00  1.222731581891E+00
  1.149664720480E+00  1.080728114615E+00  1.015709073302E+00  9.544034379531E-01
  8.966155319232E-01  8.421580717629E-01  7.908520449605E-01  7.425265586646E-01
  6.970186635783E-01  6.541731569217E-01  6.138423680617E-01  5.758859301208E-01
  5.401705405912E-01  5.065697137061E-01  4.749635270558E-01  4.452383646812E-01
  4.172866586382E-01  3.910066307938E-01  3.663020364051E-01  3.430819108252E-01
  3.212603204971E-01  3.007561192195E-01  2.814927105106E-01  2.633978167473E-01
  2.464032556255E-01  2.304447243632E-01  2.154615919624E-01  2.013966997446E-01
  1.881961702911E-01  1.758092248388E-01  1.641880091198E-01  1.532874275704E-01
  1.430649857880E-01  1.334806410715E-01  1.244966608433E-01  1.160774887259E-01
  1.081896180178E-01  1.008014722997E-01  9.388329288421E-02  8.740703281699E-02
  8.134625712672E-02  7.567604902277E-02  7.037292173682E-02  6.541473570821E-02
  6.078062081744E-02  5.645090337821E-02  5.240703760658E-02  4.863154129479E-02
  4.510793542737E-02  4.182068748806E-02  3.875515821753E-02  3.589755159385E-02
  3.323486781960E-02  3.075485911219E-02  2.844598810570E-02  2.629738868532E-02
  2.429882908678E-02  2.244067710532E-02  2.071386726973E-02  1.910986984770E-02
  1.762066155945E-02  1.623869788577E-02  1.495688686641E-02  1.376856429288E-02
  1.266747020804E-02  1.164772663220E-02  1.070381644206E-02  9.830563335498E-03
  9.023112820369E-03  8.276914171088E-03  7.587703301041E-03  6.951486503244E-03
  6.364525015285E-03  5.823320367890E-03  5.324600479385E-03  4.865306460909E-03
  4.442580099485E-03  4.053751988074E-03  3.696330273483E-03  3.367989994550E-03
  3.066562984355E-03  2.790028311456E-03  2.536503236165E-03  2.304234658839E-03
  2.091591038041E-03  1.897054757164E-03  1.719214918860E-03  1.556760547267E-03
  1.408474178674E-03  1.273225821862E-03  1.149967269972E-03  1.037726746314E-03
  9.356038671240E-04  8.427649048690E-04  7.584383362537E-04  6.819106597082E-04
  6.125224677041E-04  5.496647598589E-04  4.927754833855E-04  4.413362880487E-04
  3.948694833901E-04  3.529351865830E-04  3.151286498650E-04  2.810777570775E-04
  2.504406794058E-04  2.229036809624E-04  1.981790653858E-04  1.760032551382E-04
  1.561349956673E-04  1.383536770654E-04  1.224577662908E-04  1.082633434324E-04
  9.560273588199E-05  8.432324464384E-05  7.428595734496E-05  6.536464282715E-05
  5.744472249195E-05  5.042231384198E-05  4.420334191441E-05  3.870271453659E-05
  3.384355755211E-05  2.955650636916E-05  2.577905037308E-05  2.245492692338E-05
  1.953356182301E-05  1.696955330581E-05  1.472219673775E-05  1.275504736985E-05
  1.103551861594E-05  9.534513458271E-06  8.226086707874E-06  7.087135965863E-06
  6.097119246715E-06  5.237797334969E-06  4.492999053505E-06  3.848407724359E-06
  3.291367202343E-06  2.810705957409E-06  2.396577773983E-06  2.040317724356E-06
  1.734312158609E-06  1.471881535633E-06  1.247174998412E-06  1.055075672025E-06
  8.911157346557E-07  7.514003804015E-07  6.325398577932E-07  5.315888297149E-07
  4.459923589022E-07  3.735378784224E-07  3.123125585681E-07  2.606655304929E-07
  2.171744727600E-07  1.806161098454E-07  1.499402116345E-07  1.242467201768E-07
  1.027656645176E-07  8.483955642967E-08  6.990798943475E-08  5.749419074933E-08
  4.719330083804E-08  3.866217822998E-08  3.161054826844E-08  2.579333364432E-08
  2.100402202494E-08  1.706894194994E-08  1.384233253422E-08  1.120210550620E-08
  9.046209819580E-09  7.289519610881E-09  5.861175726682E-09  4.702319505899E-09
  3.764165057988E-09  3.006363008916E-09  2.395614668162E-09  1.904500872741E-09
  1.510494453217E-09  1.195129401471E-09  9.433035723849E-10  7.426935420764E-10
  5.832725395342E-10  4.568857630068E-10  0.000000000000E+00  0.000000000000E+00
  0.000000000000E+00  0.000000000000E+00  0.000000000000E+00  0.000000000000E+00
  0.000000000000E+00  0.000000000000E+00  0.000000000000E+00  0.000000000000E+00
  0.000000000000E+00  0.000000000000E+00  0.000000000000E+00  0.000000000000E+00
  0.000000000000E+00  0.000000000000E+00  0.000000000000E+00  0.000000000000E+00
  0.000000000000E+00  0.000000000000E+00  0.000000000000E+00  0.000000000000E+00
  0.000000000000E+00  0.000000000000E+00  0.000000000000E+00  0.000000000000E+00
  0.000000000000E+00  0.000000000000E+00  0.000000000000E+00  0.000000000000E+00
  0.000000000000E+00  0.000000000000E+00  0.000000000000E+00  0.000000000000E+00
  0.000000000000E+00  0.000000000000E+00  0.000000000000E+00  0.000000000000E+00
  0.000000000000E+00  0.000000000000E+00  0.000000000000E+00  0.000000000000E+00
  0.000000000000E+00  0.000000000000E+00  0.000000000000E+00  0.000000000000E+00
  0.000000000000E+00  0.000000000000E+00  0.000000000000E+00  0.000000000000E+00
  0.000000000000E+00  0.000000000000E+00  0.000000000000E+00  0.000000000000E+00
  0.000000000000E+00  0.000000000000E+00  0.000000000000E+00  0.000000000000E+00
  0.000000000000E+00  0.000000000000E+00  0.000000000000E+00  0.000000000000E+00
  0.000000000000E+00  0.000000000000E+00  0.000000000000E+00  0.000000000000E+00
  0.000000000000E+00  0.000000000000E+00  0.000000000000E+00  0.000000000000E+00
  0.000000000000E+00  0.000000000000E+00  0.000000000000E+00  0.000000000000E+00
  0.000000000000E+00  0.000000000000E+00  0.000000000000E+00  0.000000000000E+00
  0.000000000000E+00  0.000000000000E+00  0.000000000000E+00  0.000000000000E+00
  0.000000000000E+00
</data>
</radfunc>
</valence-charge>
<pseudocore-charge matching-radius="0.626762730111"
 number-of-continuous-derivatives="4">
<annotation model-charge-form="Teter function with specified parameters" />
<radfunc>
<data npts="290">
  1.702804563132E+02  1.702578241009E+02  1.701879984022E+02  1.700724479305E+02
  1.699118579558E+02  1.697008137519E+02  1.694320291204E+02  1.691245067527E+02
  1.687790612746E+02  1.683766589943E+02  1.679236529159E+02  1.674319517459E+02
  1.668386556261E+02  1.662201325158E+02  1.654919581276E+02  1.647663278494E+02
  1.639327290544E+02  1.631445277199E+02  1.622607189711E+02  1.612703097408E+02
  1.601612049599E+02  1.591795883810E+02  1.581061892949E+02  1.569331390239E+02
  1.556520437481E+02  1.542539823224E+02  1.527295129385E+02  1.514972414583E+02
  1.501839100064E+02  1.487850087207E+02  1.472959036331E+02  1.457118550964E+02
  1.440280407750E+02  1.422395838088E+02  1.403415867947E+02  1.383291722666E+02
  1.361975303807E+02  1.339419745241E+02  1.323671978600E+02  1.307340714172E+02
  1.290413854041E+02  1.272880038511E+02  1.254728772191E+02  1.235950559646E+02
  1.216537050764E+02  1.196481195872E+02  1.175777410555E+02  1.154421749957E+02
  1.132412092251E+02  1.109748330704E+02  1.086432573636E+02  1.062469351286E+02
  1.037865828357E+02  1.012632020706E+02  9.867810143378E+01  9.603291844860E+01
  9.332964121913E+01  9.057062953711E+01  8.775863509367E+01  8.489682040601E+01
  8.198877602238E+01  7.903853552130E+01  7.605058777518E+01  7.302988590364E+01
  6.998185230231E+01  6.691237909790E+01  6.382782335465E+01  6.228200073662E+01
  6.073499634164E+01  5.918772970111E+01  5.764114616924E+01  5.609621597055E+01
  5.455393311833E+01  5.301531419951E+01  5.148139702210E+01  4.995323912119E+01
  4.843191612059E+01  4.691851994717E+01  4.541415689596E+01  4.391994554455E+01
  4.243701451601E+01  4.096650009062E+01  3.950954366733E+01  3.806728907698E+01
  3.664087975046E+01  3.523145574575E+01  3.384015063960E+01  3.246808829014E+01
  3.111637947885E+01  2.978611844097E+01  2.847837929548E+01  2.719421238710E+01
  2.593464055409E+01  2.470065533770E+01  2.349321315020E+01  2.231323142048E+01
  2.116158473745E+01  2.003910101325E+01  1.894655768971E+01  1.788467801288E+01
  1.685412740186E+01  1.585550993942E+01  1.488936501270E+01  1.395616413356E+01
  1.305630796847E+01  1.219012360847E+01  1.135786210988E+01  1.055969633626E+01
  9.795719131763E+00  9.065941855180E+00  8.370293302832E+00  7.708619046901E+00
  7.080681213786E+00  6.486158724679E+00  5.924648017659E+00  5.395664267276E+00
  4.898643113857E+00  4.432942910480E+00  3.997847490978E+00  3.592569457229E+00
  3.216253978595E+00  2.867983090611E+00  2.546780474020E+00  2.251616689032E+00
  1.981414833354E+00  1.735056586155E+00  1.511388593850E+00  1.309229147422E+00
  1.127375095202E+00  9.646089295565E-01  8.197059811063E-01  6.914416498357E-01
  5.785985991038E-01  4.799738360751E-01  3.943856006950E-01  3.206799850942E-01
  2.577372063323E-01  2.044774577648E-01  1.598662680850E-01  1.229193022915E-01
  9.270654545449E-02  6.835581816550E-02  4.905558188342E-02  3.405700291839E-02
  2.267525537304E-02  1.429005579247E-02  8.345435326461E-03  4.348768609474E-03
  1.869092013876E-03  5.347570999244E-04  3.047762622877E-05  9.384003972276E-05
  5.113575806444E-04  1.114156675147E-03  1.773390832747E-03  2.395481545317E-03
  2.917287480697E-03  3.301302426553E-03  3.530978897592E-03  3.606268089307E-03
  3.539458058192E-03  3.351380845698E-03  3.068046054548E-03  2.717743539645E-03
  2.328641884309E-03  1.926892758702E-03  1.535234713252E-03  1.172074083467E-03
  8.510061086690E-04  5.807266972197E-04  3.652750407244E-04  2.045399285402E-04
  9.495845516699E-05  3.033501037480E-05  2.710991438226E-06  3.221398424493E-06
  2.288301163068E-05  5.326968646253E-05  8.704277752995E-05  1.183180583854E-04
  1.428639143222E-04  1.581382235281E-04  1.631824259284E-04  1.584001339199E-04
  1.452537474153E-04  1.259155811736E-04  1.029099109717E-04  7.877925713109E-05
  5.580254739726E-05  3.578514402308E-05  1.993185138031E-05  8.804805273054E-06
  2.359465352610E-06  4.460289892014E-08  9.468649366025E-07  3.957651422542E-06
  7.939846429022E-06  1.187428752462E-05  1.497034890921E-05  1.673102264614E-05
  1.696961070406E-05  1.578171929866E-05  1.348184438542E-05  1.051776658801E-05
  7.377786720311E-06  4.505381799005E-06  2.233322325844E-06  7.451411679253E-07
  6.678992114707E-08  0.000000000000E+00  0.000000000000E+00  0.000000000000E+00
  0.000000000000E+00  0.000000000000E+00  0.000000000000E+00  0.000000000000E+00
  0.000000000000E+00  0.000000000000E+00  0.000000000000E+00  0.000000000000E+00
  0.000000000000E+00  0.000000000000E+00  0.000000000000E+00  0.000000000000E+00
  0.000000000000E+00  0.000000000000E+00  0.000000000000E+00  0.000000000000E+00
  0.000000000000E+00  0.000000000000E+00  0.000000000000E+00  0.000000000000E+00
  0.000000000000E+00  0.000000000000E+00  0.000000000000E+00  0.000000000000E+00
  0.000000000000E+00  0.000000000000E+00  0.000000000000E+00  0.000000000000E+00
  0.000000000000E+00  0.000000000000E+00  0.000000000000E+00  0.000000000000E+00
  0.000000000000E+00  0.000000000000E+00  0.000000000000E+00  0.000000000000E+00
  0.000000000000E+00  0.000000000000E+00  0.000000000000E+00  0.000000000000E+00
  0.000000000000E+00  0.000000000000E+00  0.000000000000E+00  0.000000000000E+00
  0.000000000000E+00  0.000000000000E+00  0.000000000000E+00  0.000000000000E+00
  0.000000000000E+00  0.000000000000E+00  0.000000000000E+00  0.000000000000E+00
  0.000000000000E+00  0.000000000000E+00  0.000000000000E+00  0.000000000000E+00
  0.000000000000E+00  0.000000000000E+00  0.000000000000E+00  0.000000000000E+00
  0.000000000000E+00  0.000000000000E+00  0.000000000000E+00  0.000000000000E+00
  0.000000000000E+00  0.000000000000E+00  0.000000000000E+00  0.000000000000E+00
  0.000000000000E+00  0.000000000000E+00  0.000000000000E+00  0.000000000000E+00
  0.000000000000E+00  0.000000000000E+00  0.000000000000E+00  0.000000000000E+00
  0.000000000000E+00  0.000000000000E+00
</data>
</radfunc>
</pseudocore-charge>
<semilocal-potentials set="scalar_relativistic">
<slps n="4" l="s" rc="1.41051599027" eref="-3.13588538134">
<radfunc>
<data npts="290">
 -2.275885790797E+00 -2.280702527719E+00 -2.295545186466E+00 -2.320082652357E+00
 -2.354136084775E+00 -2.398803713215E+00 -2.455553439446E+00 -2.520292298970E+00
 -2.592774347125E+00 -2.676888394830E+00 -2.771172246220E+00 -2.873024181810E+00
 -2.995253295979E+00 -3.121909395471E+00 -3.270021461499E+00 -3.416554448180E+00
 -3.583597880486E+00 -3.740288241222E+00 -3.914551531756E+00 -4.108057446221E+00
 -4.322559562143E+00 -4.510501139794E+00 -4.714001221918E+00 -4.934025890785E+00
 -5.171540443210E+00 -5.427496063196E+00 -5.702814143351E+00 -5.922537139382E+00
 -6.153988503035E+00 -6.397485484295E+00 -6.653312539269E+00 -6.921715164084E+00
 -7.202893402279E+00 -7.496995087060E+00 -7.804108894772E+00 -8.124257300990E+00
 -8.457389545162E+00 -8.803374722868E+00 -9.041068285083E+00 -9.284292187688E+00
 -9.532940037276E+00 -9.786885570053E+00 -1.004598200298E+01 -1.031006145644E+01
 -1.057893445562E+01 -1.085238951748E+01 -1.113019282868E+01 -1.141208801963E+01
 -1.169779603768E+01 -1.198701512194E+01 -1.227942088003E+01 -1.257466646581E+01
 -1.287238285517E+01 -1.317217921508E+01 -1.347364335952E+01 -1.377634228358E+01
 -1.407982276566E+01 -1.438361202559E+01 -1.468721842528E+01 -1.499013219681E+01
 -1.529182618206E+01 -1.559175656715E+01 -1.588936359441E+01 -1.618407223531E+01
 -1.647529280736E+01 -1.676242152067E+01 -1.704484094067E+01 -1.718408807916E+01
 -1.732192035670E+01 -1.745825690408E+01 -1.759301605020E+01 -1.772611532493E+01
 -1.785747146042E+01 -1.798700039109E+01 -1.811461725233E+01 -1.824023637823E+01
 -1.836377129851E+01 -1.848513473487E+01 -1.860423859729E+01 -1.872099398051E+01
 -1.883531116135E+01 -1.894709959735E+01 -1.905626792746E+01 -1.916272397567E+01
 -1.926637475837E+01 -1.936712649657E+01 -1.946488463434E+01 -1.955955386457E+01
 -1.965103816386E+01 -1.973924083819E+01 -1.982406458110E+01 -1.990541154652E+01
 -1.998318343833E+01 -2.005728161861E+01 -2.012760723687E+01 -2.019406138186E+01
 -2.025654525789E+01 -2.031496038639E+01 -2.036920883353E+01 -2.041919346320E+01
 -2.046481821412E+01 -2.050598839814E+01 -2.054261101589E+01 -2.057459508400E+01
 -2.060185196716E+01 -2.062429570670E+01 -2.064184333684E+01 -2.065441517899E+01
 -2.066193510517E+01 -2.066433076220E+01 -2.066153375075E+01 -2.065347975533E+01
 -2.064010862527E+01 -2.062136441024E+01 -2.059719535765E+01 -2.056755388327E+01
 -2.053239652909E+01 -2.049168392482E+01 -2.044538076973E+01 -2.039345585140E+01
 -2.033588211566E+01 -2.027263679901E+01 -2.020370163072E+01 -2.012906310743E+01
 -2.004871283831E+01 -1.996264795491E+01 -1.987087157570E+01 -1.977339331305E+01
 -1.967022980820E+01 -1.956140527952E+01 -1.944695206942E+01 -1.932691117718E+01
 -1.920133276706E+01 -1.907027664484E+01 -1.893381269945E+01 -1.879202131115E+01
 -1.864499373225E+01 -1.849283245092E+01 -1.833565155299E+01 -1.817357710024E+01
 -1.800674754693E+01 -1.783531421849E+01 -1.765944187744E+01 -1.747930940308E+01
 -1.729511061087E+01 -1.710705523811E+01 -1.691537012160E+01 -1.672030059315E+01
 -1.652211211839E+01 -1.632109220410E+01 -1.611755259938E+01 -1.591183181508E+01
 -1.570429798484E+01 -1.549535208875E+01 -1.528543155614E+01 -1.507501425771E+01