<?xml version="1.0" encoding="UTF-8" ?>
<psml version="1.1" energy_unit="hartree" length_unit="bohr"
 uuid="f0b13b90-be44-11e7-67e6-e0f9fea351ff"
 xmlns="http://esl.cecam.org/PSML/ns/1.1">
<provenance creator="ONCVPSP-3.3.0+psml-3.3.0-73 (scalar-relativistic)"
 date="2017-10-31">
<annotation action="semilocal-pseudopotential-generation"
 action-cont="projectors-generation" />
<input-file name="oncvpsp-input">
<![CDATA[# atsym z nc nv iexc psfile
Tc 43 6 4 4 upf
# n l f
1 0 2.0
2 0 2.0
2 1 6.0
3 0 2.0
3 1 6.0
3 2 10.0
4 0 2.0
4 1 6.0
4 2 5.0
5 0 2.0
# lmax
2
# l rc ep ncon nbas qcut
0 1.4 0.0 4 8 8.4
1 1.4 0.0 4 8 9.0
2 1.35 0.0 4 8 9.2
# lloc lpopt rc5 dvloc0
4 5 1.2 0.0
# l nproj debl
0 2 1.0
1 2 2.0
2 2 1.5
# icmod fcfact rcfact
3 5.0 1.28
# epsh1 epsh2 depsh
-12.0 12.0 0.02
# rlmax drl
6.0 0.01
 0
]]>
</input-file>
</provenance>
<pseudo-atom-spec atomic-label="Tc" atomic-number="43" z-pseudo="15"
 flavor="Hamann&apos;s oncvpsp" relativity="scalar" spin-dft="no"
 core-corrections="yes">
<annotation pseudo-energy="-80.7248250694" />
<exchange-correlation>
<annotation oncvpsp-xc-code="4" oncvpsp-xc-type="GGA -- Perdew-Burke-Ernzerhof" />
<libxc-info number-of-functionals="2">
<functional name="Perdew, Burke &amp; Ernzerhof (GGA)" type="exchange" id="101" />
<functional name="Perdew, Burke &amp; Ernzerhof (GGA)" type="correlation"
 id="130" />
</libxc-info>
</exchange-correlation>
<valence-configuration total-valence-charge="15">
<shell n="4" l="s" occupation="2" />
<shell n="4" l="p" occupation="6" />
<shell n="4" l="d" occupation="5" />
<shell n="5" l="s" occupation="2" />
</valence-configuration>
</pseudo-atom-spec>
<grid npts="457">
<annotation type="sampled from oncvpsp log grid"
 recipe="r(i:1..N) = r1*exp(a*(i-1)) + r=0; resampled"
 recipe-cont="r1: scale; a: step" scale="0.116279069767E-04"
 step="0.119285708653E-01" delta="0.500000000000E-02" rmax="44.1318799948" />
<grid-data>
  0.000000000000E+00  5.039441559062E-03  1.006588903305E-02  1.510043866069E-02
  2.010582340092E-02  2.522037856629E-02  3.052388447908E-02  3.564400236410E-02
  4.112942271229E-02  4.634018239958E-02  5.159199851370E-02  5.675791737359E-02
  6.244110089536E-02  6.787879734231E-02  7.291505605902E-02  7.832497934927E-02
  8.413629120847E-02  8.930708755962E-02  9.479566752734E-02  1.006215612614E-01
  1.068054991833E-01  1.120251835497E-01  1.174999587597E-01  1.232422913408E-01
  1.292652570711E-01  1.355825707545E-01  1.422086174500E-01  1.473898075375E-01
  1.527597676953E-01  1.583253755208E-01  1.640937591880E-01  1.700723065768E-01
  1.762686747350E-01  1.826907996852E-01  1.893469065890E-01  1.962455202813E-01
  2.033954761885E-01  2.108059316443E-01  2.158956300580E-01  2.211082141501E-01
  2.264466508725E-01  2.319139788112E-01  2.375133099156E-01  2.432478312702E-01
  2.491208069084E-01  2.551355796704E-01  2.612955731059E-01  2.676042934230E-01
  2.740653314834E-01  2.806823648468E-01  2.874591598636E-01  2.943995738194E-01
  3.015075571297E-01  3.087871555890E-01  3.162425126735E-01  3.238778718995E-01
  3.316975792387E-01  3.397060855918E-01  3.479079493223E-01  3.563078388508E-01
  3.649105353120E-01  3.737209352766E-01  3.827440535379E-01  3.919850259665E-01
  4.014491124334E-01  4.111416998040E-01  4.210683050041E-01  4.261211246641E-01
  4.312345781601E-01  4.364093930980E-01  4.416463058152E-01  4.469460614850E-01
  4.523094142228E-01  4.577371271935E-01  4.632299727198E-01  4.687887323924E-01
  4.744141971812E-01  4.801071675473E-01  4.858684535579E-01  4.916988750006E-01
  4.975992615006E-01  5.035704526386E-01  5.096132980703E-01  5.157286576471E-01
  5.219174015389E-01  5.281804103573E-01  5.345185752816E-01  5.409327981850E-01
  5.474239917632E-01  5.539930796644E-01  5.606409966204E-01  5.673686885798E-01
  5.741771128428E-01  5.810672381969E-01  5.880400450552E-01  5.950965255959E-01
  6.022376839031E-01  6.094645361099E-01  6.167781105432E-01  6.241794478697E-01
  6.316696012442E-01  6.392496364591E-01  6.469206320966E-01  6.546836796818E-01
  6.625398838379E-01  6.704903624440E-01  6.785362467933E-01  6.866786817549E-01
  6.949188259359E-01  7.032578518471E-01  7.116969460693E-01  7.202373094221E-01
  7.288801571352E-01  7.376267190208E-01  7.464782396491E-01  7.554359785249E-01
  7.645012102672E-01  7.736752247904E-01  7.829593274879E-01  7.923548394177E-01
  8.018630974907E-01  8.114854546606E-01  8.212232801165E-01  8.310779594779E-01
  8.410508949917E-01  8.511435057316E-01  8.613572278003E-01  8.716935145340E-01
  8.821538367084E-01  8.927396827489E-01  9.034525589418E-01  9.142939896491E-01
  9.252655175249E-01  9.363687037352E-01  9.476051281801E-01  9.589763897182E-01
  9.704841063948E-01  9.821299156716E-01  9.939154746596E-01  1.005842460356E+00
  1.017912569880E+00  1.030127520718E+00  1.042489050967E+00  1.054998919579E+00
  1.067658906614E+00  1.080470813493E+00  1.093436463255E+00  1.106557700814E+00
  1.119836393224E+00  1.133274429942E+00  1.146873723102E+00  1.160636207779E+00
  1.174563842272E+00  1.188658608379E+00  1.202922511680E+00  1.217357581820E+00
  1.231965872802E+00  1.246749463276E+00  1.261710456835E+00  1.276850982317E+00
  1.292173194105E+00  1.307679272434E+00  1.323371423703E+00  1.339251880788E+00
  1.355322903357E+00  1.371586778197E+00  1.388045819536E+00  1.404702369370E+00
  1.421558797803E+00  1.438617503376E+00  1.455880913417E+00  1.473351484378E+00
  1.491031702190E+00  1.508924082617E+00  1.527031171608E+00  1.545355545667E+00
  1.563899812215E+00  1.582666609962E+00  1.601658609281E+00  1.620878512593E+00
  1.640329054744E+00  1.660013003401E+00  1.679933159442E+00  1.700092357355E+00
  1.720493465643E+00  1.741139387231E+00  1.762033059878E+00  1.783177456596E+00
  1.804575586075E+00  1.826230493108E+00  1.848145259026E+00  1.870323002134E+00
  1.892766878160E+00  1.915480080697E+00  1.938465841666E+00  1.961727431766E+00
  1.985268160947E+00  2.009091378878E+00  2.033200475425E+00  2.057598881130E+00
  2.082290067704E+00  2.107277548516E+00  2.132564879098E+00  2.158155657647E+00
  2.184053525539E+00  2.210262167846E+00  2.236785313860E+00  2.263626737626E+00
  2.290790258478E+00  2.318279741579E+00  2.346099098478E+00  2.374252287660E+00
  2.402743315112E+00  2.431576234893E+00  2.460755149712E+00  2.490284211509E+00
  2.520167622047E+00  2.550409633511E+00  2.581014549113E+00  2.611986723703E+00
  2.643330564387E+00  2.675050531160E+00  2.707151137534E+00  2.739636951184E+00
  2.772512594598E+00  2.805782745734E+00  2.839452138682E+00  2.873525564347E+00
  2.908007871119E+00  2.942903965572E+00  2.978218813159E+00  3.013957438917E+00
  3.050124928184E+00  3.086726427322E+00  3.123767144450E+00  3.161252350183E+00
  3.199187378386E+00  3.237577626926E+00  3.276428558449E+00  3.315745701151E+00
  3.355534649564E+00  3.395801065359E+00  3.436550678144E+00  3.477789286281E+00
  3.519522757717E+00  3.561757030809E+00  3.604498115179E+00  3.647752092561E+00
  3.691525117672E+00  3.735823419084E+00  3.780653300113E+00  3.826021139714E+00
  3.871933393391E+00  3.918396594112E+00  3.965417353241E+00  4.013002361480E+00
  4.061158389818E+00  4.109892290495E+00  4.159210997981E+00  4.209121529957E+00
  4.259630988317E+00  4.310746560176E+00  4.362475518898E+00  4.414825225125E+00
  4.467803127827E+00  4.521416765361E+00  4.575673766545E+00  4.630581851744E+00
  4.686148833964E+00  4.742382619972E+00  4.799291211412E+00  4.856882705949E+00
  4.915165298420E+00  4.974147282001E+00  5.033837049385E+00  5.094243093978E+00
  5.155374011105E+00  5.217238499239E+00  5.279845361230E+00  5.343203505564E+00
  5.407321947631E+00  5.472209811003E+00  5.537876328735E+00  5.604330844679E+00
  5.671582814816E+00  5.739641808593E+00  5.808517510297E+00  5.878219720420E+00
  5.948758357065E+00  6.020143457350E+00  6.092385178838E+00  6.165493800984E+00
  6.239479726596E+00  6.314353483315E+00  6.390125725115E+00  6.466807233816E+00
  6.544408920622E+00  6.622941827670E+00  6.702417129602E+00  6.782846135157E+00
  6.864240288779E+00  6.946611172244E+00  7.029970506311E+00  7.114330152387E+00
  7.199702114215E+00  7.286098539586E+00  7.373531722061E+00  7.462014102726E+00
  7.551558271958E+00  7.642176971222E+00  7.733883094877E+00  7.826689692015E+00
  7.920609968319E+00  8.015657287939E+00  8.111845175394E+00  8.209187317499E+00
  8.307697565309E+00  8.407389936093E+00  8.508278615326E+00  8.610377958710E+00
  8.713702494214E+00  8.818266924145E+00  8.924086127235E+00  9.031175160761E+00
  9.139549262691E+00  9.249223853843E+00  9.360214540089E+00  9.472537114570E+00
  9.586207559945E+00  9.701242050664E+00  9.817656955272E+00  9.935468838736E+00
  1.005469446480E+01  1.017535079838E+01  1.029745500796E+01  1.042102446805E+01
  1.054607676167E+01  1.067262968281E+01  1.080070123900E+01  1.093030965387E+01
  1.106147336972E+01  1.119421105016E+01  1.132854158276E+01  1.146448408175E+01
  1.160205789073E+01  1.174128258542E+01  1.188217797645E+01  1.202476411216E+01
  1.216906128151E+01  1.231509001689E+01  1.246287109709E+01  1.261242555025E+01
  1.276377465686E+01  1.291693995274E+01  1.307194323217E+01  1.322880655096E+01
  1.338755222957E+01  1.354820285633E+01  1.371078129060E+01  1.387531066609E+01
  1.404181439408E+01  1.421031616681E+01  1.438083996081E+01  1.455341004034E+01
  1.472805096083E+01  1.490478757236E+01  1.508364502322E+01  1.526464876350E+01
  1.544782454866E+01  1.563319844325E+01  1.582079682457E+01  1.601064638646E+01
  1.620277414310E+01  1.639720743282E+01  1.659397392201E+01  1.679310160908E+01
  1.699461882838E+01  1.719855425432E+01  1.740493690538E+01  1.761379614824E+01
  1.782516170202E+01  1.803906364244E+01  1.825553240615E+01  1.847459879503E+01
  1.869629398057E+01  1.892064950833E+01  1.914769730243E+01  1.937746967006E+01
  1.960999930610E+01  1.984531929778E+01  2.008346312935E+01  2.032446468690E+01
  2.056835826315E+01  2.081517856230E+01  2.106496070505E+01  2.131774023351E+01
  2.157355311631E+01  2.183243575371E+01  2.209442498275E+01  2.235955808255E+01
  2.262787277954E+01  2.289940725289E+01  2.317420013993E+01  2.345229054161E+01
  2.373371802811E+01  2.401852264444E+01  2.430674491618E+01  2.459842585517E+01
  2.489360696543E+01  2.519233024902E+01  2.549463821201E+01  2.580057387055E+01
  2.611018075700E+01  2.642350292608E+01  2.674058496119E+01  2.706147198073E+01
  2.738620964450E+01  2.771484416023E+01  2.804742229015E+01  2.838399135764E+01
  2.872459925393E+01  2.906929444497E+01  2.941812597831E+01  2.977114349005E+01
  3.012839721193E+01  3.048993797848E+01  3.085581723422E+01  3.122608704103E+01
  3.160080008552E+01  3.198000968655E+01  3.236376980279E+01  3.275213504042E+01
  3.314516066091E+01  3.354290258884E+01  3.394541741990E+01  3.435276242894E+01
  3.476499557809E+01  3.518217552503E+01  3.560436163133E+01  3.603161397090E+01
  3.646399333855E+01  3.690156125862E+01  3.734437999372E+01  3.779251255364E+01
  3.824602270429E+01  3.870497497674E+01  3.916943467646E+01  3.963946789258E+01
  4.011514150729E+01  4.059652320537E+01  4.108368148384E+01  4.157668566165E+01
  4.207560588959E+01  4.258051316026E+01  4.309147931818E+01  4.360857707000E+01
  4.413187999484E+01
</grid-data>
</grid>
<valence-charge total-charge="15" is-unscreening-charge="yes"
 rescaled-to-z-pseudo="no">
<radfunc>
<data npts="457">
  9.670475407335E-02  9.729836345850E-02  9.907390522182E-02  1.020396013149E-01
  1.061701710939E-01  1.116142410702E-01  1.185737229412E-01  1.265719385349E-01
  1.365483901139E-01  1.473881138046E-01  1.596727828760E-01  1.731051475431E-01
  1.894496749222E-01  2.066490455347E-01  2.239623577387E-01  2.440675563519E-01
  2.674349717882E-01  2.897975255045E-01  3.151839467710E-01  3.440259076457E-01
  3.768216705295E-01  4.062891550306E-01  4.389900571384E-01  4.753025425051E-01
  5.156524511143E-01  5.605196155466E-01  6.104449754629E-01  6.515725604933E-01
  6.961726157781E-01  7.445577931814E-01  7.970701814833E-01  8.540839550651E-01
  9.160081839988E-01  9.832897904215E-01  1.056416626802E+00  1.135920639895E+00
  1.222381069329E+00  1.316427611353E+00  1.383674902758E+00  1.454812499907E+00
  1.530068075073E+00  1.609681036048E+00  1.693902750888E+00  1.782996700422E+00
  1.877238542027E+00  1.976916065900E+00  2.082329022533E+00  2.193788797436E+00
  2.311617906210E+00  2.436149280065E+00  2.567725308622E+00  2.706696603574E+00
  2.853420443385E+00  3.008258855902E+00  3.171576292537E+00  3.343736844709E+00
  3.525100950651E+00  3.716021538714E+00  3.916839552016E+00  4.127878799188E+00
  4.349440077054E+00  4.581794513987E+00  4.825176087554E+00  5.079773277497E+00
  5.345719825449E+00  5.623084586640E+00  5.911860476645E+00  6.060501697010E+00
  6.211952538558E+00  6.366185307924E+00  6.523165183293E+00  6.682849776820E+00
  6.845188688499E+00  7.010123052865E+00  7.177585080143E+00  7.347497593648E+00
  7.519773565466E+00  7.694315652682E+00  7.871015736665E+00  8.049754468156E+00
  8.230400821186E+00  8.412811659102E+00  8.596831316249E+00  8.782291199146E+00
  8.969009411246E+00  9.156790405654E+00  9.345424670449E+00  9.534688451494E+00
  9.724343517897E+00  9.914136975471E+00  1.010380113379E+01  1.029305343263E+01
  1.048159643359E+01  1.066911788317E+01  1.085529085311E+01  1.103977396434E+01
  1.122221170056E+01  1.140223481743E+01  1.157946085328E+01  1.175349474695E+01
  1.192392956791E+01  1.209034736386E+01  1.225232012986E+01  1.240941090309E+01
  1.256117498624E+01  1.270716130172E+01  1.284691387844E+01  1.297997347112E+01
  1.310587931175E+01  1.322417099095E+01  1.333439046607E+01  1.343608419109E+01
  1.352880536215E+01  1.361211627057E+01  1.368559075378E+01  1.374881673277E+01
  1.380139882267E+01  1.384296100145E+01  1.387314931990E+01  1.389163463396E+01
  1.389811533911E+01  1.389232008442E+01  1.387401044268E+01  1.384298351121E+01
  1.379907441702E+01  1.374215869864E+01  1.367215453633E+01  1.358902480175E+01
  1.349277889800E+01  1.338347436090E+01  1.326121819309E+01  1.312616790340E+01
  1.297853222493E+01  1.281857148760E+01  1.264659762265E+01  1.246297377955E+01
  1.226811353880E+01  1.206247970785E+01  1.184658269127E+01  1.162097843089E+01
  1.138626591653E+01  1.114308427305E+01  1.089210943520E+01  1.063405042711E+01
  1.036964526972E+01  1.009965654493E+01  9.824866651535E+00  9.546072793650E+00
  9.264081748135E+00  8.979704462398E+00  8.693750538918E+00  8.407022666637E+00
  8.120311062640E+00  7.834387989742E+00  7.550002416718E+00  7.267874887902E+00
  6.988692667566E+00  6.713105222178E+00  6.441720099807E+00  6.175099260312E+00
  5.913755903207E+00  5.658151832634E+00  5.408695390543E+00  5.165739980270E+00
  4.929583193753E+00  4.700466432783E+00  4.478574663131E+00  4.264036645958E+00
  4.056928272241E+00  3.857282268190E+00  3.665100412887E+00  3.480357133285E+00
  3.303000233090E+00  3.132953759218E+00  2.970120058915E+00  2.814381923524E+00
  2.665604669761E+00  2.523638159889E+00  2.388318751886E+00  2.259471171968E+00
  2.136910303039E+00  2.020442883817E+00  1.909869114515E+00  1.804984165983E+00
  1.705579590272E+00  1.611444631440E+00  1.522367436345E+00  1.438136165923E+00
  1.358540008170E+00  1.283370094715E+00  1.212420323415E+00  1.145488089940E+00
  1.082374931711E+00  1.022887087963E+00  9.668359799830E-01  9.140386158403E-01
  8.643179239483E-01  8.175030203476E-01  7.734294140949E-01  7.319391556006E-01
  6.928809325646E-01  6.561101181263E-01  6.214887757480E-01  5.888856252186E-01
  5.581759740118E-01  5.292416180478E-01  5.019707157126E-01  4.762576387759E-01
  4.520028036251E-01  4.291124860069E-01  4.074986222377E-01  3.870785996145E-01
  3.677750385366E-01  3.495155686250E-01  3.322326009212E-01  3.158630980405E-01
  3.003483439674E-01  2.856337149953E-01  2.716684531436E-01  2.584054432210E-01
  2.458009945553E-01  2.338146282645E-01  2.224088708123E-01  2.115490544672E-01
  2.012031251680E-01  1.913414581921E-01  1.819366819238E-01  1.729635099313E-01
  1.643985814752E-01  1.562203105026E-01  1.484087431071E-01  1.409454233841E-01
  1.338132675524E-01  1.269964461718E-01  1.204802742479E-01  1.142511089820E-01
  1.082962549003E-01  1.026038760727E-01  9.716291511900E-02  9.196301868711E-02
  8.699446908128E-02  8.224812171575E-02  7.771534806840E-02  7.338798381224E-02
  6.925828180811E-02  6.531886964927E-02  6.156271145802E-02  5.798307364500E-02
  5.457349435372E-02  5.132775632474E-02  4.823986292698E-02  4.530401711577E-02
  4.251460308976E-02  3.986617043046E-02  3.735342051903E-02  3.497119503520E-02
  3.271446635212E-02  3.057832964926E-02  2.855799657646E-02  2.664879029392E-02
  2.484614174650E-02  2.314558701061E-02  2.154276557012E-02  2.003341938131E-02
  1.861339259307E-02  1.727863179508E-02  1.602518667424E-02  1.484921096729E-02
  1.374696360623E-02  1.271480996229E-02  1.174922310384E-02  1.084678499354E-02
  1.000418756037E-02  9.218233592276E-03  8.485837405127E-03  7.804025253709E-03
  7.169935459415E-03  6.580818238146E-03  6.034035219812E-03  5.527058657999E-03
  5.057470334687E-03  4.622960170375E-03  4.221324554536E-03  3.850464415119E-03
  3.508383048685E-03  3.193183734972E-03  2.903067161108E-03  2.636328681499E-03
  2.391355439627E-03  2.166623377709E-03  1.960694159422E-03  1.772212029791E-03
  1.599900634930E-03  1.442559822659E-03  1.299062443216E-03  1.168351167313E-03
  1.049435336799E-03  9.413878611838E-04  8.433421712932E-04  7.544892394304E-04
  6.740746736517E-04  6.013958921090E-04  5.357993819374E-04  4.766780458613E-04
  4.234686385655E-04  3.756492939311E-04  3.327371434636E-04  2.942860256264E-04
  2.598842853241E-04  2.291526624398E-04  2.017422680912E-04  1.773326471219E-04
  1.556299252559E-04  1.363650393072E-04  1.192920488207E-04  1.041865275340E-04
  9.084403305271E-05  7.907865314255E-05  6.872162703308E-05  5.962004011151E-05
  5.163559034820E-05  4.464342474637E-05  3.853104404430E-05  3.319727382307E-05
  2.855130008993E-05  2.451176731998E-05  2.100593685090E-05  1.796890344046E-05
  1.534286771769E-05  1.307646218881E-05  1.112412840040E-05  9.445542817249E-06
  8.005088940821E-06  6.771373179050E-06  5.716781977125E-06  4.817077733948E-06
  4.051031058106E-06  3.400086960305E-06  2.848062634884E-06  2.380874550083E-06
  1.986292643683E-06  1.653719505996E-06  1.373992524479E-06  1.139207061877E-06
  9.425588414122E-07  7.782038166853E-07  6.411339093489E-07  5.270671031563E-07
  4.323504875247E-07  3.538749464502E-07  2.890002886263E-07  2.354897113083E-07
  1.914525832724E-07  1.552946207332E-07  1.256746139718E-07  1.014669414777E-07
  8.172918249289E-08  6.567420790976E-08  5.264619353474E-08  4.210005886861E-08
  3.358388889022E-08  2.672394603539E-08  2.121192483088E-08  1.679414269874E-08
  1.326239752676E-08  1.044625595725E-08  8.206566234945E-09  6.430016132371E-09
  5.024580192715E-09  3.915721544573E-09  3.043232090544E-09  2.358611182384E-09
  1.822897187598E-09  1.404878830932E-09  1.079624051016E-09  8.272735247230E-10
  6.320541435456E-10  4.814747270169E-10  3.656722644448E-10  2.768821113188E-10
  2.090099419019E-10  1.572869742982E-10  1.179931274412E-10  8.823541975503E-11
  6.577114609725E-11  4.886723507777E-11  3.618874110142E-11  2.661169473794E-11
  1.957940093613E-11  1.435641749159E-11  1.049047637999E-11  7.638871359936E-12
  5.542812734300E-12  4.007561257525E-12  2.887093028282E-12  2.072304079452E-12
  1.481970261722E-12  1.055844013409E-12  7.494022926898E-13  5.298655984258E-13
  3.731918053414E-13  2.618147486191E-13  1.829495986900E-13  1.273279107700E-13
  8.825712139199E-14  6.092405902263E-14  4.188123679123E-14  2.866950311226E-14
  1.954199814868E-14  1.326306099397E-14  8.962355203493E-15  6.029501898251E-15
  4.038300674217E-15  2.692467986085E-15  1.786954896825E-15  1.180494467201E-15
  7.762069509729E-16  5.079604451256E-16  3.308234979854E-16  2.144133779648E-16
  1.382837556460E-16  8.874187119646E-17  5.666281967532E-17  3.599595461743E-17
  2.274932679455E-17  1.430262398066E-17  8.944747012887E-18  5.564142034455E-18
  3.442534753443E-18  2.118264645378E-18  1.296209797588E-18  7.887414676084E-19
  4.772314839340E-19  2.870971838993E-19  1.717134234543E-19  1.020997562347E-19
  6.034754632730E-20  3.545503513888E-20  2.070371011333E-20  1.201540940618E-20
  6.929739380979E-21  3.971463421126E-21  2.261551971888E-21  1.279533062235E-21
  7.192031083845E-22  4.015803239897E-22  2.227303320715E-22  1.226978578840E-22
  6.712898184825E-23  0.000000000000E+00  0.000000000000E+00  0.000000000000E+00
  0.000000000000E+00  0.000000000000E+00  0.000000000000E+00  0.000000000000E+00
  0.000000000000E+00
</data>
</radfunc>
</valence-charge>
<pseudocore-charge matching-radius="0.720237309422"
 number-of-continuous-derivatives="4">
<annotation model-charge-form="Teter function with specified parameters" />
<radfunc>
<data npts="290">
  6.870357109474E+01  6.869708522300E+01  6.867769787882E+01  6.864535681985E+01
  6.860039932037E+01  6.854129850332E+01  6.846599750258E+01  6.837980190956E+01
  6.827279690983E+01  6.815716483300E+01  6.802690173822E+01  6.788540375455E+01
  6.771451927318E+01  6.753619300680E+01  6.735819767969E+01  6.715335570524E+01
  6.691771451572E+01  6.669458933697E+01  6.644403063422E+01  6.616278416069E+01
  6.584724152828E+01  6.556744498599E+01  6.526091831596E+01  6.492524903144E+01
  6.455783650872E+01  6.415588370648E+01  6.371639005895E+01  6.336021086136E+01
  6.297968160435E+01  6.257330255264E+01  6.213950697843E+01  6.167666232459E+01
  6.118307224355E+01  6.065697966402E+01  6.009657105508E+01  5.949998207513E+01
  5.886530481192E+01  5.819059683812E+01  5.771758203337E+01  5.722531675422E+01
  5.671321547257E+01  5.618069497931E+01  5.562717693498E+01  5.505209069815E+01
  5.445487644866E+01  5.383498862235E+01  5.319189967369E+01  5.252510418149E+01
  5.183412331219E+01  5.111850965301E+01  5.037785242567E+01  4.961178308839E+01
  4.881998133069E+01  4.800218146160E+01  4.715817918697E+01  4.628783876606E+01
  4.539110053096E+01  4.446798874493E+01  4.351861976676E+01  4.254321047893E+01
  4.154208692579E+01  4.051569309606E+01  3.946459977036E+01  3.838951333958E+01
  3.729128448416E+01  3.617091658733E+01  3.502957373728E+01  3.445144626769E+01
  3.386858815485E+01  3.328119329212E+01  3.268946686427E+01  3.209362550020E+01
  3.149389740546E+01  3.089052247266E+01  3.028375236797E+01  2.967385059145E+01
  2.906109250938E+01  2.844576535637E+01  2.782816820511E+01  2.720861190170E+01
  2.658741896416E+01  2.596492344215E+01  2.534147073560E+01  2.471741737004E+01
  2.409313072660E+01  2.346898872449E+01  2.284537945395E+01  2.222270075787E+01
  2.160135976001E+01  2.098177233835E+01  2.036436254186E+01  1.974956194945E+01
  1.913780896982E+01  1.852954808138E+01  1.792522901146E+01  1.732530585459E+01
  1.673023612958E+01  1.614047977587E+01  1.555649808974E+01  1.497875260147E+01
  1.440770389503E+01  1.384381037222E+01  1.328752696389E+01  1.273930379124E+01
  1.219958478077E+01  1.166880623715E+01  1.114739537879E+01  1.063576884150E+01
  1.013433115643E+01  9.643473208742E+00  9.163570684763E+00  8.694982515214E+00
  8.238049323450E+00  7.793091887824E+00  7.360409628045E+00  6.940279125947E+00
  6.532952691532E+00  6.138656985676E+00  5.757591711195E+00  5.389928384342E+00
  5.035809198947E+00  4.695345995595E+00  4.368619348162E+00  4.055677779959E+00
  3.756537121419E+00  3.471180020876E+00  3.199555619381E+00  2.941579399797E+00
  2.697133219445E+00  2.466065534526E+00  2.248191823239E+00  2.043295213054E+00
  1.851127315968E+00  1.671409273734E+00  1.503833013094E+00  1.348062708879E+00
  1.203736450581E+00  1.070468105614E+00  9.478493699706E-01  8.354519944724E-01
  7.328301722197E-01  6.395230702927E-01  5.550574862601E-01  4.789506076436E-01
  4.107128502372E-01  3.498507491315E-01  2.958698744961E-01  2.482777426859E-01
  2.065866921108E-01  1.703166925879E-01  1.389980566373E-01  1.121740214157E-01
  8.940317075659E-02  7.026166810563E-02  5.434527304787E-02  4.127111659476E-02
  3.067921344703E-02  2.223369303471E-02  1.562373522579E-02  1.056420112974E-02
  6.795954331022E-03  4.085873079931E-03  2.226559340684E-03  1.035756031117E-03
  3.554891554885E-04  5.095669373083E-05  9.190924245453E-06  1.375251790277E-04
  3.618997199218E-04  6.250443522755E-04  8.845774410923E-04  1.111062068875E-03
  1.286060103101E-03  1.400223884517E-03  1.451463099750E-03  1.443221195574E-03
  1.382891500187E-03  1.280398151855E-03  1.146961149348E-03  9.940585195275E-04
  8.325919633707E-04  6.722556339658E-04  5.211011735415E-04  3.852860493728E-04
  2.689868290802E-04  1.744545511004E-04  1.021859677786E-04  5.118231154344E-05
  1.926644653165E-05  3.429840878003E-06  1.826803703751E-07  5.883522619352E-06
  1.702897463283E-05  3.048871809352E-05  4.367651070601E-05  5.465323309359E-05
  6.216329277124E-05  6.561041541161E-05  6.498275950020E-05  6.074015088520E-05
  5.367789182119E-05  4.478198807863E-05  3.508978853664E-05  2.556807321887E-05
  1.701777621869E-05  1.001108025548E-05  4.862908845113E-06  1.635227503540E-06
  1.693889433927E-07  1.393118742745E-07  1.116782694870E-06  2.639725660693E-06
  4.274896095810E-06  5.667992568937E-06  6.576433427591E-06  6.882697786172E-06
  6.588845334174E-06  5.795257394156E-06  4.668481942683E-06  3.404100567526E-06
  2.190662760347E-06  1.179979290990E-06  4.675849627412E-07  8.522969628721E-08
  0.000000000000E+00  0.000000000000E+00  0.000000000000E+00  0.000000000000E+00
  0.000000000000E+00  0.000000000000E+00  0.000000000000E+00  0.000000000000E+00
  0.000000000000E+00  0.000000000000E+00  0.000000000000E+00  0.000000000000E+00
  0.000000000000E+00  0.000000000000E+00  0.000000000000E+00  0.000000000000E+00
  0.000000000000E+00  0.000000000000E+00  0.000000000000E+00  0.000000000000E+00
  0.000000000000E+00  0.000000000000E+00  0.000000000000E+00  0.000000000000E+00
  0.000000000000E+00  0.000000000000E+00  0.000000000000E+00  0.000000000000E+00
  0.000000000000E+00  0.000000000000E+00  0.000000000000E+00  0.000000000000E+00
  0.000000000000E+00  0.000000000000E+00  0.000000000000E+00  0.000000000000E+00
  0.000000000000E+00  0.000000000000E+00  0.000000000000E+00  0.000000000000E+00
  0.000000000000E+00  0.000000000000E+00  0.000000000000E+00  0.000000000000E+00
  0.000000000000E+00  0.000000000000E+00  0.000000000000E+00  0.000000000000E+00
  0.000000000000E+00  0.000000000000E+00  0.000000000000E+00  0.000000000000E+00
  0.000000000000E+00  0.000000000000E+00  0.000000000000E+00  0.000000000000E+00
  0.000000000000E+00  0.000000000000E+00  0.000000000000E+00  0.000000000000E+00
  0.000000000000E+00  0.000000000000E+00  0.000000000000E+00  0.000000000000E+00
  0.000000000000E+00  0.000000000000E+00
</data>
</radfunc>
</pseudocore-charge>
<semilocal-potentials set="scalar_relativistic">
<slps n="4" l="s" rc="1.40470236937" eref="-2.69664706474">
<radfunc>
<data npts="290">
  6.126280957802E+01  6.120534260662E+01  6.103399176244E+01  6.074957387501E+01
  6.035712846586E+01  5.984633258919E+01  5.920378878128E+01  5.847941665398E+01
  5.759629104785E+01  5.666147531336E+01  5.563187376433E+01  5.454070054065E+01
  5.325923317341E+01  5.196252517374E+01  5.070767407955E+01  4.931003326345E+01
  4.776062612251E+01  4.634799223132E+01  4.482128109648E+01  4.317829775041E+01
  4.141827967626E+01  3.992654880486E+01  3.836178604294E+01  3.672614904988E+01
  3.502267263408E+01  3.325529568586E+01  3.142886704450E+01  3.002371398140E+01
  2.859129446337E+01  2.713460037098E+01  2.565685697152E+01  2.416149834255E+01
  2.265213877796E+01  2.113254065895E+01  1.960657939706E+01  1.807820616248E+01
  1.655140919531E+01  1.503017455319E+01  1.402105926666E+01  1.301732195535E+01
  1.202009313238E+01  1.103047838348E+01  1.004955409052E+01  9.078363460804E+00
  8.117912896230E+00  7.169168731638E+00  6.233054366402E+00  5.310447807913E+00
  4.402179640185E+00  3.509031425288E+00  2.631734540052E+00  1.770969445351E+00
  9.273653804418E-01  1.015004704346E-01 -7.060977691842E-01 -1.494951550558E+00
 -2.264631576839E+00 -3.014755476444E+00 -3.744985935961E+00 -4.455028561385E+00
 -5.144629498766E+00 -5.813572846595E+00 -6.461677893065E+00 -7.088796212109E+00
 -7.694808652608E+00 -8.279622255655E+00 -8.843167135271E+00 -9.116947505048E+00
 -9.385393358419E+00 -9.648501065290E+00 -9.906267860782E+00 -1.015869175344E+01
 -1.040577143544E+01 -1.064750619512E+01 -1.088389583222E+01 -1.111494057598E+01
 -1.134064100643E+01 -1.156099797948E+01 -1.177601255559E+01 -1.198568593275E+01
 -1.219001938389E+01 -1.238901419903E+01 -1.258267163240E+01 -1.277099285495E+01
 -1.295397891220E+01 -1.313163068797E+01 -1.330394887393E+01 -1.347093394521E+01
 -1.363258614219E+01 -1.378890545847E+01 -1.393989163508E+01 -1.408554416085E+01
 -1.422586227882E+01 -1.436084499855E+01 -1.449049111396E+01 -1.461479922661E+01
 -1.473376777377E+01 -1.484739506109E+01 -1.495567929913E+01 -1.505861864350E+01
 -1.515621123778E+01 -1.524845525877E+01 -1.533534896349E+01 -1.541689073739E+01
 -1.549307914315E+01 -1.556391296978E+01 -1.562939128145E+01 -1.568951346595E+01
 -1.574427928251E+01 -1.579368890887E+01 -1.583774298777E+01 -1.587644267286E+01
 -1.590978967451E+01 -1.593778630569E+01 -1.596043552843E+01 -1.597774100147E+01
 -1.598970712955E+01 -1.599633911499E+01 -1.599764301225E+01 -1.599362578613E+01
 -1.598429537427E+01 -1.596966075481E+01 -1.594973202009E+01 -1.592452045736E+01
 -1.589403863773E+01 -1.585830051485E+01 -1.581732153520E+01 -1.577111876242E+01
 -1.571971101843E+01 -1.566311904526E+01 -1.560136569207E+01 -1.553447613299E+01
 -1.546247812263E+01 -1.538540229736E+01 -1.530328253184E+01 -1.521615636206E+01
 -1.512406548726E+01 -1.502705636502E+01 -1.492518091512E+01 -1.481849734894E+01
 -1.470707114229E+01 -1.459097617024E+01 -1.447029602243E+01 -1.434512551693E+01
 -1.421557242956E+01 -1.408175945273E+01 -1.394382639496E+01 -1.380193262701E+01
 -1.365625977413E+01 -1.350701464576E+01 -1.335443238366E+01 -1.319877979704E+01