<?xml version="1.0" encoding="UTF-8" ?>
<psml version="1.1" energy_unit="hartree" length_unit="bohr"
 uuid="d8b87e80-be45-11e7-525c-72f6e2ebda16"
 xmlns="http://esl.cecam.org/PSML/ns/1.1">
<provenance creator="ONCVPSP-3.3.0+psml-3.3.0-73 (scalar-relativistic)"
 date="2017-10-31">
<annotation action="semilocal-pseudopotential-generation"
 action-cont="projectors-generation" />
<input-file name="oncvpsp-input">
<![CDATA[# atsym z nc nv iexc psfile
Os 76 10 4 4 upf
# n l f
1 0 2.0
2 0 2.0
2 1 6.0
3 0 2.0
3 1 6.0
3 2 10.0
4 0 2.0
4 1 6.0
4 2 10.0
4 3 14.0
5 0 2.0
5 1 6.0
5 2 6.0
6 0 2.0
# lmax
3
# l rc ep ncon nbas qcut
0 1.5 0.0 4 8 8.2
1 1.55 0.0 4 8 8.4
2 1.55 0.0 4 8 8.4
3 2.25 0.5 4 8 6.8
# lloc lpopt rc5 dvloc0
4 5 1.5 0.0
# l nproj debl
0 2 1.1
1 2 2.0
2 2 1.5
3 2 3.0
# icmod fcfact rcfact
3 5.0 1.4
# epsh1 epsh2 depsh
-12.0 12.0 0.02
# rlmax drl
6.0 0.01
 0
]]>
</input-file>
</provenance>
<pseudo-atom-spec atomic-label="Os" atomic-number="76" z-pseudo="16"
 flavor="Hamann&apos;s oncvpsp" relativity="scalar" spin-dft="no"
 core-corrections="yes">
<annotation pseudo-energy="-92.2476416161" />
<exchange-correlation>
<annotation oncvpsp-xc-code="4" oncvpsp-xc-type="GGA -- Perdew-Burke-Ernzerhof" />
<libxc-info number-of-functionals="2">
<functional name="Perdew, Burke &amp; Ernzerhof (GGA)" type="exchange" id="101" />
<functional name="Perdew, Burke &amp; Ernzerhof (GGA)" type="correlation"
 id="130" />
</libxc-info>
</exchange-correlation>
<valence-configuration total-valence-charge="16">
<shell n="5" l="s" occupation="2" />
<shell n="5" l="p" occupation="6" />
<shell n="5" l="d" occupation="6" />
<shell n="6" l="s" occupation="2" />
</valence-configuration>
</pseudo-atom-spec>
<grid npts="457">
<annotation type="sampled from oncvpsp log grid"
 recipe="r(i:1..N) = r1*exp(a*(i-1)) + r=0; resampled"
 recipe-cont="r1: scale; a: step" scale="0.657894736842E-05"
 step="0.119285708653E-01" delta="0.500000000000E-02" rmax="44.2661643415" />
<grid-data>
  0.000000000000E+00  5.054775556102E-03  1.009651748877E-02  1.514638622830E-02
  2.016700133758E-02  2.529711905544E-02  3.061676245946E-02  3.575245982319E-02
  4.076538655265E-02  4.593002585167E-02  5.113535818743E-02  5.625555354481E-02
  6.188843525909E-02  6.727800270248E-02  7.313692176392E-02  7.856330635186E-02
  8.439230085264E-02  8.957883088678E-02  9.508411148849E-02  1.009277322338E-01
  1.071304866227E-01  1.123660534284E-01  1.178574872674E-01  1.236172926000E-01
  1.296585849917E-01  1.359951209775E-01  1.426413293872E-01  1.478382847836E-01
  1.532245846394E-01  1.588071274791E-01  1.645930631661E-01  1.705898020602E-01
  1.768050245080E-01  1.832466906800E-01  1.899230507651E-01  1.968426555376E-01
  2.040143673083E-01  2.114473712749E-01  2.165525566070E-01  2.217810015337E-01
  2.271356820347E-01  2.326196459418E-01  2.382360146734E-01  2.439879850116E-01
  2.498788309218E-01  2.559119054155E-01  2.620906424599E-01  2.684185589314E-01
  2.748992566183E-01  2.815364242701E-01  2.883338396977E-01  2.952953719233E-01
  3.024249833830E-01  3.097267321818E-01  3.172047744036E-01  3.248633664768E-01
  3.327068675970E-01  3.407397422083E-01  3.489665625442E-01  3.573920112303E-01
  3.660208839494E-01  3.748580921715E-01  3.839086659489E-01  3.931777567795E-01
  4.026706405392E-01  4.123927204844E-01  4.223495303278E-01  4.274177246917E-01
  4.325467373880E-01  4.377372982367E-01  4.429901458155E-01  4.483060275653E-01
  4.536856998961E-01  4.591299282948E-01  4.646394874344E-01  4.702151612836E-01
  4.758577432190E-01  4.815680361376E-01  4.873468525712E-01  4.931950148021E-01
  4.991133549797E-01  5.051027152395E-01  5.111639478224E-01  5.172979151962E-01
  5.235054901786E-01  5.297875560607E-01  5.361450067335E-01  5.425787468143E-01
  5.490896917760E-01  5.556787680773E-01  5.623469132943E-01  5.690950762538E-01
  5.759242171688E-01  5.828353077749E-01  5.898293314682E-01  5.969072834458E-01
  6.040701708471E-01  6.113190128973E-01  6.186548410521E-01  6.260786991447E-01
  6.335916435344E-01  6.411947432568E-01  6.488890801759E-01  6.566757491380E-01
  6.645558581277E-01  6.725305284252E-01  6.806008947663E-01  6.887681055035E-01
  6.970333227696E-01  7.053977226428E-01  7.138624953145E-01  7.224288452583E-01
  7.310979914014E-01  7.398711672982E-01  7.487496213058E-01  7.577346167615E-01
  7.668274321626E-01  7.760293613485E-01  7.853417136847E-01  7.947658142489E-01
  8.043030040199E-01  8.139546400682E-01  8.237220957490E-01  8.336067608980E-01
  8.436100420288E-01  8.537333625331E-01  8.639781628835E-01  8.743459008381E-01
  8.848380516482E-01  8.954561082679E-01  9.062015815671E-01  9.170760005460E-01
  9.280809125525E-01  9.392178835031E-01  9.504884981052E-01  9.618943600824E-01
  9.734370924034E-01  9.851183375123E-01  9.969397575624E-01  1.008903034653E+00
  1.021009871069E+00  1.033261989522E+00  1.045661133396E+00  1.058209066997E+00
  1.070907575801E+00  1.083758466710E+00  1.096763568311E+00  1.109924731131E+00
  1.123243827904E+00  1.136722753839E+00  1.150363426885E+00  1.164167788008E+00
  1.178137801464E+00  1.192275455081E+00  1.206582760542E+00  1.221061753669E+00
  1.235714494713E+00  1.250543068650E+00  1.265549585473E+00  1.280736180499E+00
  1.296105014665E+00  1.311658274841E+00  1.327398174139E+00  1.343326952229E+00
  1.359446875655E+00  1.375760238163E+00  1.392269361021E+00  1.408976593354E+00
  1.425884312474E+00  1.442994924223E+00  1.460310863314E+00  1.477834593674E+00
  1.495568608798E+00  1.513515432104E+00  1.531677617289E+00  1.550057748696E+00
  1.568658441681E+00  1.587482342981E+00  1.606532131097E+00  1.625810516670E+00
  1.645320242870E+00  1.665064085784E+00  1.685044854814E+00  1.705265393071E+00
  1.725728577788E+00  1.746437320722E+00  1.767394568570E+00  1.788603303393E+00
  1.810066543034E+00  1.831787341550E+00  1.853768789649E+00  1.876014015125E+00
  1.898526183306E+00  1.921308497506E+00  1.944364199476E+00  1.967696569870E+00
  1.991308928708E+00  2.015204635853E+00  2.039387091483E+00  2.063859736581E+00
  2.088626053420E+00  2.113689566061E+00  2.139053840853E+00  2.164722486944E+00
  2.190699156787E+00  2.216987546668E+00  2.243591397228E+00  2.270514493995E+00
  2.297760667923E+00  2.325333795938E+00  2.353237801489E+00  2.381476655107E+00
  2.410054374969E+00  2.438975027468E+00  2.468242727798E+00  2.497861640531E+00
  2.527835980218E+00  2.558170011980E+00  2.588868052124E+00  2.619934468750E+00
  2.651373682375E+00  2.683190166563E+00  2.715388448562E+00  2.747973109945E+00
  2.780948787264E+00  2.814320172711E+00  2.848092014784E+00  2.882269118961E+00
  2.916856348389E+00  2.951858624569E+00  2.987280928064E+00  3.023128299201E+00
  3.059405838791E+00  3.096118708857E+00  3.133272133363E+00  3.170871398963E+00
  3.208921855751E+00  3.247428918020E+00  3.286398065036E+00  3.325834841817E+00
  3.365744859918E+00  3.406133798237E+00  3.447007403816E+00  3.488371492662E+00
  3.530231950574E+00  3.572594733981E+00  3.615465870789E+00  3.658851461238E+00
  3.702757678773E+00  3.747190770918E+00  3.792157060169E+00  3.837662944891E+00
  3.883714900230E+00  3.930319479033E+00  3.977483312781E+00  4.025213112535E+00
  4.073515669885E+00  4.122397857924E+00  4.171866632219E+00  4.221929031805E+00
  4.272592180187E+00  4.323863286349E+00  4.375749645785E+00  4.428258641535E+00
  4.481397745233E+00  4.535174518176E+00  4.589596612394E+00  4.644671771743E+00
  4.700407833004E+00  4.756812727000E+00  4.813894479724E+00  4.871661213481E+00
  4.930121148042E+00  4.989282601819E+00  5.049153993041E+00  5.109743840957E+00
  5.171060767049E+00  5.233113496253E+00  5.295910858208E+00  5.359461788507E+00
  5.423775329969E+00  5.488860633928E+00  5.554726961536E+00  5.621383685074E+00
  5.688840289295E+00  5.757106372766E+00  5.826191649240E+00  5.896105949031E+00
  5.966859220419E+00  6.038461531064E+00  6.110923069437E+00  6.184254146270E+00
  6.258465196025E+00  6.333566778377E+00  6.409569579718E+00  6.486484414675E+00
  6.564322227651E+00  6.643094094383E+00  6.722811223515E+00  6.803484958197E+00
  6.885126777696E+00  6.967748299028E+00  7.051361278616E+00  7.135977613960E+00
  7.221609345327E+00  7.308268657471E+00  7.395967881361E+00  7.484719495937E+00
  7.574536129888E+00  7.665430563447E+00  7.757415730208E+00  7.850504718971E+00
  7.944710775599E+00  8.040047304906E+00  8.136527872565E+00  8.234166207035E+00
  8.332976201520E+00  8.432971915938E+00  8.534167578929E+00  8.636577589877E+00
  8.740216520955E+00  8.845099119206E+00  8.951240308637E+00  9.058655192341E+00
  9.167359054649E+00  9.277367363304E+00  9.388695771664E+00  9.501360120924E+00
  9.615376442375E+00  9.730760959684E+00  9.847530091200E+00  9.965700452294E+00
  1.008528885772E+01  1.020631232401E+01  1.032878807190E+01  1.045273352877E+01
  1.057816633111E+01  1.070510432708E+01  1.083356557901E+01  1.096356836596E+01
  1.109513118635E+01  1.122827276058E+01  1.136301203371E+01  1.149936817812E+01
  1.163736059625E+01  1.177700892341E+01  1.191833303049E+01  1.206135302686E+01
  1.220608926318E+01  1.235256233434E+01  1.250079308235E+01  1.265080259934E+01
  1.280261223053E+01  1.295624357729E+01  1.311171850022E+01  1.326905912222E+01
  1.342828783169E+01  1.358942728567E+01  1.375250041310E+01  1.391753041806E+01
  1.408454078307E+01  1.425355527247E+01  1.442459793574E+01  1.459769311097E+01
  1.477286542830E+01  1.495013981344E+01  1.512954149120E+01  1.531109598910E+01
  1.549482914097E+01  1.568076709066E+01  1.586893629574E+01  1.605936353129E+01
  1.625207589367E+01  1.644710080439E+01  1.664446601405E+01  1.684419960621E+01
  1.704633000149E+01  1.725088596151E+01  1.745789659304E+01  1.766739135216E+01
  1.787940004839E+01  1.809395284897E+01  1.831108028316E+01  1.853081324655E+01
  1.875318300551E+01  1.897822120158E+01  1.920595985600E+01  1.943643137427E+01
  1.966966855076E+01  1.990570457337E+01  2.014457302825E+01  2.038630790459E+01
  2.063094359944E+01  2.087851492264E+01  2.112905710171E+01  2.138260578693E+01
  2.163919705637E+01  2.189886742105E+01  2.216165383010E+01  2.242759367606E+01
  2.269672480018E+01  2.296908549778E+01  2.324471452375E+01  2.352365109804E+01
  2.380593491121E+01  2.409160613015E+01  2.438070540371E+01  2.467327386855E+01
  2.496935315498E+01  2.526898539284E+01  2.557221321755E+01  2.587907977616E+01
  2.618962873347E+01  2.650390427828E+01  2.682195112962E+01  2.714381454317E+01
  2.746954031769E+01  2.779917480150E+01  2.813276489912E+01  2.847035807791E+01
  2.881200237484E+01  2.915774640334E+01  2.950763936018E+01  2.986173103250E+01
  3.022007180489E+01  3.058271266655E+01  3.094970521855E+01  3.132110168117E+01
  3.169695490135E+01  3.207731836016E+01  3.246224618049E+01  3.285179313465E+01
  3.324601465227E+01  3.364496682810E+01  3.404870643003E+01  3.445729090719E+01
  3.487077839808E+01  3.528922773886E+01  3.571269847172E+01  3.614125085338E+01
  3.657494586362E+01  3.701384521399E+01  3.745801135655E+01  3.790750749283E+01
  3.836239758275E+01  3.882274635374E+01  3.928861930999E+01  3.976008274171E+01
  4.023720373461E+01  4.072005017942E+01  4.120869078157E+01  4.170319507095E+01
  4.220363341180E+01  4.271007701275E+01  4.322259793690E+01  4.374126911214E+01
  4.426616434149E+01
</grid-data>
</grid>
<valence-charge total-charge="16" is-unscreening-charge="yes"
 rescaled-to-z-pseudo="no">
<radfunc>
<data npts="457">
  8.732209395512E-01  8.740671668712E-01  8.765973857899E-01  8.808205419360E-01
  8.866960881903E-01  8.944287350722E-01  9.042952983388E-01  9.156090561584E-01
  9.283501567173E-01  9.432349979434E-01  9.600471905244E-01  9.783622146962E-01
  1.000554321526E+00  1.023798572867E+00  1.051306185725E+00  1.078871881779E+00
  1.110730151056E+00  1.141042314889E+00  1.175250937622E+00  1.213863285599E+00
  1.257453924587E+00  1.296345417763E+00  1.339210653087E+00  1.386461528968E+00
  1.438553263604E+00  1.495988895438E+00  1.559324184197E+00  1.611064191719E+00
  1.666748895796E+00  1.726682073262E+00  1.791190576739E+00  1.860625871834E+00
  1.935365607032E+00  2.015815195415E+00  2.102409380322E+00  2.195613748394E+00
  2.295926142961E+00  2.403877917905E+00  2.480367872263E+00  2.560680234271E+00
  2.644998364213E+00  2.733512632330E+00  2.826420362407E+00  2.923925709641E+00
  3.026239461276E+00  3.133578747066E+00  3.246166645081E+00  3.364231666712E+00
  3.488007102968E+00  3.617730212292E+00  3.753641228183E+00  3.895982162904E+00
  4.044995381531E+00  4.200921918586E+00  4.363999507556E+00  4.534460291800E+00
  4.712528183748E+00  4.898415838081E+00  5.092321203729E+00  5.294423619362E+00
  5.504879417610E+00  5.723817004794E+00  5.951331385736E+00  6.187478107455E+00
  6.432266601575E+00  6.685652913421E+00  6.947531816350E+00  7.081604275089E+00
  7.217728323271E+00  7.355869700427E+00  7.495988623950E+00  7.638039478148E+00
  7.781970496873E+00  7.927723440551E+00  8.075233268617E+00  8.224427808441E+00
  8.375227422010E+00  8.527544671779E+00  8.681283987258E+00  8.836341334090E+00
  8.992603887550E+00  9.149949712565E+00  9.308247452586E+00  9.467356029806E+00
  9.627124359453E+00  9.787391081070E+00  9.947984309933E+00  1.010872141194E+01
  1.026940880551E+01  1.042984179433E+01  1.058980443472E+01  1.074906944201E+01
  1.090739813999E+01  1.106454045805E+01  1.122023498051E+01  1.137420905295E+01
  1.152617895013E+01  1.167585011044E+01  1.182291744164E+01  1.196706570262E+01
  1.210796996579E+01  1.224529616457E+01  1.237870173032E+01  1.250783632237E+01
  1.263234265507E+01  1.275185742457E+01  1.286601233815E+01  1.297443524782E+01
  1.307675138942E+01  1.317258472750E+01  1.326155940550E+01  1.334330129934E+01
  1.341743967197E+01  1.348360892467E+01  1.354145043994E+01  1.359061450931E+01
  1.363076233796E+01  1.366156811655E+01  1.368272114920E+01  1.369392802476E+01
  1.369491481743E+01  1.368542930063E+01  1.366524315725E+01  1.363415416735E+01
  1.359198835366E+01  1.353860206387E+01  1.347388396757E+01  1.339775694548E+01
  1.331017984757E+01  1.321114909681E+01  1.310070011532E+01  1.297890855010E+01
  1.284589127611E+01  1.270180715612E+01  1.254685753762E+01  1.238128646943E+01
  1.220538062281E+01  1.201946890422E+01  1.182392175014E+01  1.161915009737E+01
  1.140560402566E+01  1.118377107309E+01  1.095417422873E+01  1.071736961033E+01
  1.047394383911E+01  1.022451112716E+01  9.969710096681E+00  9.710200353543E+00
  9.446658840801E+00  9.179776000625E+00  8.910251775433E+00  8.638791481099E+00
  8.366101586759E+00  8.092885436994E+00  7.819838953042E+00  7.547646350278E+00
  7.276975909422E+00  7.008475838951E+00  6.742770265983E+00  6.480455392508E+00
  6.222095853339E+00  5.968221311514E+00  5.719323326097E+00  5.475852526439E+00
  5.238216125816E+00  5.006775805961E+00  4.781846002282E+00  4.563692617290E+00
  4.352532187004E+00  4.148531521625E+00  3.951807837580E+00  3.762429393059E+00
  3.580416633422E+00  3.405743846369E+00  3.238341537594E+00  3.078100083106E+00
  2.924875412286E+00  2.778498283972E+00  2.638786940398E+00  2.505549596065E+00
  2.378585982315E+00  2.257689333063E+00  2.142648043713E+00  2.033247228973E+00
  1.929270152126E+00  1.830499529038E+00  1.736718709538E+00  1.647712739415E+00
  1.563269306958E+00  1.483179578534E+00  1.407238928164E+00  1.335247566462E+00
  1.267011074559E+00  1.202340848869E+00  1.141054462653E+00  1.082975950441E+00
  1.027936021320E+00  9.757722070767E-01  9.263289510617E-01  8.794576435441E-01
  8.350166088102E-01  7.928710499190E-01  7.528929555882E-01  7.149609743495E-01
  6.789602604711E-01  6.447822959237E-01  6.123246923861E-01  5.814909769979E-01
  5.521903652788E-01  5.243375243549E-01  4.978523293493E-01  4.726596155287E-01
  4.486889285296E-01  4.258742747419E-01  4.041538736794E-01  3.834699139444E-01
  3.637683141692E-01  3.449984901209E-01  3.271131289588E-01  3.100679714620E-01
  2.938216028786E-01  2.783352528987E-01  2.635726051198E-01  2.494996162459E-01
  2.360843451550E-01  2.232967918705E-01  2.111087463848E-01  1.994936472097E-01
  1.884264494622E-01  1.778835022422E-01  1.678424350085E-01  1.582820526285E-01
  1.491822387420E-01  1.405238670624E-01  1.322887202192E-01  1.244594157398E-01
  1.170193387600E-01  1.099525810574E-01  1.032438859997E-01  9.687859901459E-02
  9.084262318936E-02  8.512237962754E-02  7.970477219813E-02  7.457715632975E-02
  6.972731151618E-02  6.514341721470E-02  6.081403183353E-02  5.672807451908E-02
  5.287480946731E-02  4.924383249884E-02  4.582505963918E-02  4.260871747869E-02
  3.958533507668E-02  3.674573719634E-02  3.408103866554E-02  3.158263967035E-02
  2.924222179928E-02  2.705174466870E-02  2.500344297221E-02  2.308982381017E-02
  2.130366416948E-02  1.963800843789E-02  1.808616585189E-02  1.664170779210E-02
  1.529846485468E-02  1.405052364204E-02  1.289222322992E-02  1.181815128129E-02
  1.082313978992E-02  9.902260447796E-03  9.050819640596E-03  8.264353084691E-03
  7.538620126298E-03  6.869597730068E-03  6.253474189241E-03  5.686642593335E-03
  5.165694091944E-03  4.687410994771E-03  4.248759748581E-03  3.846883831479E-03
  3.479096603834E-03  3.142874153523E-03  2.835848170869E-03  2.555798886086E-03
  2.300648098995E-03  2.068452327644E-03  1.857396099131E-03  1.665785402574E-03
  1.492041320860E-03  1.334693854593E-03  1.192375948602E-03  1.063817728538E-03
  9.478409525220E-04  8.433536804481E-04  7.493451616405E-04  6.648809395758E-04
  5.890981717282E-04  5.212011598020E-04  4.604570872204E-04  4.061919578306E-04
  3.577867303340E-04  3.146736428962E-04  2.763327218513E-04  2.422884685365E-04
  2.121067183817E-04  1.853916664844E-04  1.617830540429E-04  1.409535101816E-04
  1.226060438519E-04  1.064716806340E-04  9.230723937689E-05  7.989324371476E-05
  6.903196356152E-05  5.954558173539E-05  5.127448089186E-05  4.407564595626E-05
  3.782117724913E-05  3.239690949519E-05  2.770113190341E-05  2.364340450715E-05
  2.014346596277E-05  1.713022802605E-05  1.454085196090E-05  1.231990218533E-05
  1.041857252727E-05  8.793980547542E-06  7.408525488575E-06  6.229305525419E-06
  5.227590128223E-06  4.378343491494E-06  3.659795143473E-06  3.053054016697E-06
  2.541762436483E-06  2.111786665508E-06  1.750940827991E-06  1.448741224245E-06
  1.196188233756E-06  9.855731909490E-07  8.103078007229E-07  6.647738395967E-07
  5.441910616139E-07  4.445013951684E-07  3.622676768087E-07  2.945853202981E-07
  2.390054632860E-07  1.934682696194E-07  1.562451924090E-07  1.258891214445E-07
  1.011914484834E-07  8.114518547200E-08  6.491336412805E-08  5.180203081279E-08
  4.123722858363E-08  3.274542912405E-08  2.593694129991E-08  2.049188080946E-08
  1.614833720729E-08  1.269242092188E-08  9.949914177321E-09  7.779286389951E-09
  6.065867042131E-09  4.716997625356E-09  3.658009359286E-09  2.828895378508E-09
  2.181565258059E-09  1.677586422757E-09  1.286331431992E-09  9.834626056657E-10
  7.496961912791E-10  5.697974781129E-10  4.317661328410E-10  3.261777333795E-10
  2.456531677053E-10  1.844323783517E-10  1.380329923039E-10  1.029777867964E-10
  7.657779777780E-11  5.676026147644E-11  4.193256191247E-11  3.087500017159E-11
  2.265655815702E-11  1.656894624366E-11  1.207514004031E-11  8.769359803800E-12
  6.346055365666E-12  4.575953763306E-12  3.287626351958E-12  2.353353989183E-12
  1.678327080471E-12  1.192423883161E-12  8.439738136808E-13  5.440680964461E-13
  3.823677063393E-13  2.676663774790E-13  1.866253603795E-13  1.295958266232E-13
  8.962598234209E-14  6.172742672813E-14  4.233526270646E-14  2.891241924902E-14
  1.966086717643E-14  1.331173525349E-14  8.973417386770E-15  6.022120090359E-15
  4.023334774664E-15  2.675745067630E-15  1.771337839064E-15  1.167164800199E-15
  7.654428942343E-16  4.995956689086E-16  3.245076283525E-16  2.097521163160E-16
  1.349079362539E-16  8.633612485821E-17  5.497248798026E-17  3.482327229967E-17
  2.194514017506E-17  1.375702592759E-17  8.578291999874E-18  5.320342451954E-18
  3.281805368348E-18  2.013224092059E-18  1.228142415178E-18  7.449953446341E-19
  4.493421478166E-19  2.694571560233E-19  1.606427356982E-19  9.520521539709E-20
  5.608642680624E-20  3.284134394204E-20  1.911254579322E-20  1.105397798714E-20
  6.353143563812E-21  3.628239456688E-21  2.058766944954E-21  1.160616542182E-21
  6.499898264504E-22  3.615980066651E-22  1.998075847450E-22  1.096552309669E-22
  0.000000000000E+00  0.000000000000E+00  0.000000000000E+00  0.000000000000E+00
  0.000000000000E+00  0.000000000000E+00  0.000000000000E+00  0.000000000000E+00
  0.000000000000E+00  0.000000000000E+00  0.000000000000E+00  0.000000000000E+00
  0.000000000000E+00  0.000000000000E+00  0.000000000000E+00  0.000000000000E+00
  0.000000000000E+00
</data>
</radfunc>
</valence-charge>
<pseudocore-charge matching-radius="0.874345900838"
 number-of-continuous-derivatives="4">
<annotation model-charge-form="Teter function with specified parameters" />
<radfunc>
<data npts="290">
  6.880339490761E+01  6.879968814629E+01  6.878860718419E+01  6.877011964329E+01
  6.874441418352E+01  6.871061165746E+01  6.866752650476E+01  6.861818437283E+01
  6.856269686915E+01  6.849797952594E+01  6.842501887880E+01  6.834569985759E+01
  6.824981627821E+01  6.814965001759E+01  6.803145557709E+01  6.791338085871E+01
  6.777737354337E+01  6.764841249955E+01  6.750338843122E+01  6.734033979333E+01
  6.715707605186E+01  6.699427736360E+01  6.681560449839E+01  6.661955652634E+01
  6.640450045208E+01  6.616866169262E+01  6.591011433764E+01  6.570005213544E+01
  6.547510273092E+01  6.523426661135E+01  6.497648569771E+01  6.470064126473E+01
  6.440555202386E+01  6.408997242323E+01  6.375259122691E+01  6.339203044608E+01
  6.300684470519E+01  6.259552113863E+01  6.230600697719E+01  6.200369082997E+01
  6.168807559208E+01  6.135865179283E+01  6.101489804695E+01  6.065628161331E+01
  6.028225907234E+01  5.989227713371E+01  5.948577358677E+01  5.906217840693E+01
  5.862091503177E+01  5.816140182160E+01  5.768305371945E+01  5.718528412647E+01
  5.666750700892E+01  5.612913925346E+01  5.556960328773E+01  5.498832998330E+01
  5.438476185793E+01  5.375835659389E+01  5.310859088847E+01  5.243496465166E+01
  5.173700556514E+01  5.101427401454E+01  5.026636840487E+01  4.949293086633E+01
  4.869365335400E+01  4.786828414087E+01  4.701663469879E+01  4.658091503633E+01
  4.613858695583E+01  4.568964795661E+01  4.523410091189E+01  4.477195432442E+01
  4.430322258654E+01  4.382792624410E+01  4.334609226402E+01  4.285775430491E+01
  4.236295299027E+01  4.186173618368E+01  4.135415926548E+01  4.084028541003E+01
  4.032018586311E+01  3.979394021841E+01  3.926163669241E+01  3.872337239665E+01
  3.817925360645E+01  3.762939602496E+01  3.707392504145E+01  3.651297598269E+01
  3.594669435594E+01  3.537523608250E+01  3.479876772011E+01  3.421746667287E+01
  3.363152138708E+01  3.304113153122E+01  3.244650815861E+01  3.184787385065E+01
  3.124546283903E+01  3.063952110482E+01  3.003030645262E+01  2.941808855755E+01
  2.880314898311E+01  2.818578116780E+01  2.756629037827E+01  2.694499362684E+01
  2.632221955123E+01  2.569830825426E+01  2.507361110133E+01  2.444849047359E+01
  2.382331947457E+01  2.319848158827E+01  2.257437028678E+01  2.195138858536E+01
  2.132994854347E+01  2.071047070985E+01  2.009338351040E+01  1.947912257745E+01
  1.886813001944E+01  1.826085363016E+01  1.765774603706E+01  1.705926378828E+01
  1.646586637873E+01  1.587801521548E+01  1.529617252340E+01  1.472080019241E+01
  1.415235856808E+01  1.359130518775E+01  1.303809346510E+01  1.249317132641E+01
  1.195697980231E+01  1.142995157981E+01  1.091250951941E+01  1.040506514318E+01
  9.908017100274E+00  9.421749616749E+00  8.946630937480E+00  8.483011768488E+00
  8.031223728610E+00  7.591577820086E+00  7.164362928182E+00  6.749844360531E+00
  6.348262437309E+00  5.959831143841E+00  5.584736857512E+00  5.223137161178E+00
  4.875159755401E+00  4.540901481892E+00  4.220427470496E+00  3.913770421839E+00
  3.620930037430E+00  3.341872608496E+00  3.076530774211E+00  2.824803459089E+00
  2.586555998387E+00  2.361620459088E+00  2.149796162745E+00  1.950850414854E+00
  1.764519443725E+00  1.590509549906E+00  1.428498465146E+00  1.278136917675E+00
  1.139050398248E+00  1.010841118932E+00  8.930901541298E-01  7.853597507364E-01
  6.871957917763E-01  5.981303953123E-01  5.176846279658E-01  4.453713100440E-01
  3.806978871094E-01  3.231693408904E-01  2.722911107782E-01  2.275719958347E-01
  1.885270063000E-01  1.546801330874E-01  1.255670037315E-01  1.007373937460E-01
  7.975756339042E-02  6.221239145202E-02  4.770727983240E-02  3.586980549175E-02
  2.635109961876E-02  1.882693773900E-02  1.299852879542E-02  8.592995968775E-03
  5.363547072430E-03  3.089337657541E-03  1.575035390909E-03  6.500996939384E-04
  1.677959235580E-04  3.968393311257E-06  5.560113119172E-05  2.391993073426E-04
  4.890276033422E-04  7.552443108890E-04  1.001971534090E-03  1.205342441814E-03
  1.351566018255E-03  1.435048167240E-03  1.456605351612E-03  1.421803245243E-03
  1.339448234207E-03  1.220254157963E-03  1.075700601136E-03  9.170925355519E-04
  7.548244011571E-04  5.978450531712E-04  4.533136493394E-04  3.264307609548E-04
  2.204240042623E-04  1.366635165106E-04  7.487981393582E-05  3.345508563120E-05
  9.758854116595E-06  5.001585727216E-07  2.070906792620E-06  1.085864315930E-05
  2.351147387681E-05  3.714300428882E-05  4.947056370628E-05  5.888538683343E-05
  6.445845392896E-05  6.589005365967E-05  6.341455844584E-05  5.767419386019E-05
  4.957662680632E-05  4.015097210611E-05  3.041540309072E-05  2.126712307628E-05
  1.340226783901E-05  7.269682700970E-06  3.058804115366E-06  7.184292501243E-07
  3.006098999610E-10  5.194244460826E-07  1.822048192584E-06  3.452299702040E-06
  5.009578160631E-06  6.190709599761E-06  6.813372031780E-06  6.820027182375E-06
  6.264215784155E-06  5.283251315916E-06  4.062817558698E-06  2.799573775723E-06
  1.667557201833E-06  7.930359966333E-07  2.407153278774E-07  1.213098512996E-08
  0.000000000000E+00  0.000000000000E+00  0.000000000000E+00  0.000000000000E+00
  0.000000000000E+00  0.000000000000E+00  0.000000000000E+00  0.000000000000E+00
  0.000000000000E+00  0.000000000000E+00  0.000000000000E+00  0.000000000000E+00
  0.000000000000E+00  0.000000000000E+00  0.000000000000E+00  0.000000000000E+00
  0.000000000000E+00  0.000000000000E+00  0.000000000000E+00  0.000000000000E+00
  0.000000000000E+00  0.000000000000E+00  0.000000000000E+00  0.000000000000E+00
  0.000000000000E+00  0.000000000000E+00  0.000000000000E+00  0.000000000000E+00
  0.000000000000E+00  0.000000000000E+00  0.000000000000E+00  0.000000000000E+00
  0.000000000000E+00  0.000000000000E+00  0.000000000000E+00  0.000000000000E+00
  0.000000000000E+00  0.000000000000E+00  0.000000000000E+00  0.000000000000E+00
  0.000000000000E+00  0.000000000000E+00
</data>
</radfunc>
</pseudocore-charge>
<semilocal-potentials set="scalar_relativistic">
<slps n="5" l="s" rc="1.51351543210" eref="-3.36448157763">
<radfunc>
<data npts="290">
  3.918812029794E+00  3.913075172373E+00  3.895937466904E+00  3.867384791130E+00
  3.827767406627E+00  3.775816951244E+00  3.709839786868E+00  3.634609097246E+00
  3.550424112892E+00  3.452786971194E+00  3.343418929983E+00  3.225359684777E+00
  3.083800749275E+00  2.937252645114E+00  2.766056520925E+00  2.596873744388E+00
  2.404237962021E+00  2.223761479790E+00  2.023294011043E+00  1.800997523686E+00
  1.554957525414E+00  1.339707659420E+00  1.106979202018E+00  8.557498701091E-01
  5.850115856521E-01  2.937867862025E-01 -1.885276582830E-02 -2.679050743677E-01
 -5.298156598857E-01 -8.048767760446E-01 -1.093338343195E+00 -1.395401220415E+00
 -1.711210265479E+00 -2.040847275211E+00 -2.384323915214E+00 -2.741574763704E+00
 -3.112450608319E+00 -3.496712146344E+00 -3.760161605096E+00 -4.029289375062E+00
 -4.303950937906E+00 -4.583980792873E+00 -4.869192072329E+00 -5.159376260818E+00
 -5.454303024789E+00 -5.753720159133E+00 -6.057353655447E+00 -6.364907895605E+00
 -6.676065972683E+00 -6.990490139634E+00 -7.307822384383E+00 -7.627685128147E+00
 -7.949682041952E+00 -8.273398974425E+00 -8.598404982121E+00 -8.924253451896E+00
 -9.250483303196E+00 -9.576620256686E+00 -9.902178154388E+00 -1.022666031546E+01
 -1.054956091105E+01 -1.087036634118E+01 -1.118855659660E+01 -1.150360658860E+01
 -1.181498743059E+01 -1.212216765610E+01 -1.242461435896E+01 -1.257389597302E+01
 -1.272179424347E+01 -1.286824260330E+01 -1.301317457390E+01 -1.315652378875E+01
 -1.329822401516E+01 -1.343820917422E+01 -1.357641335897E+01 -1.371277085056E+01
 -1.384721613278E+01 -1.397968390466E+01 -1.411010909141E+01 -1.423842685364E+01
 -1.436457259502E+01 -1.448848196833E+01 -1.461009088022E+01 -1.472933549457E+01
 -1.484615223472E+01 -1.496047778472E+01 -1.507224908965E+01 -1.518140335535E+01
 -1.528787804757E+01 -1.539161089095E+01 -1.549253986785E+01 -1.559060321741E+01
 -1.568573943507E+01 -1.577788727274E+01 -1.586698573996E+01 -1.595297410638E+01
 -1.603579190576E+01 -1.611537894189E+01 -1.619167529667E+01 -1.626462134084E+01
 -1.633415774747E+01 -1.640022550872E+01 -1.646276595615E+01 -1.652172078495E+01
 -1.657703208233E+01 -1.662864236051E+01 -1.667649459457E+01 -1.672053226541E+01
 -1.676069940823E+01 -1.679694066655E+01 -1.682920135229E+01 -1.685742751184E+01
 -1.688156599839E+01 -1.690156455070E+01 -1.691737187819E+01 -1.692893775265E+01
 -1.693621310636E+01 -1.693915013668E+01 -1.693770241704E+01 -1.693182501422E+01
 -1.692147461186E+01 -1.690660964005E+01 -1.688719041088E+01 -1.686317926002E+01
 -1.683454069416E+01 -1.680124154442E+01 -1.676325112596E+01 -1.672054140390E+01
 -1.667308716617E+01 -1.662086620376E+01 -1.656385949919E+01 -1.650205142444E+01
 -1.643542994954E+01 -1.636398686359E+01 -1.628771801040E+01 -1.620662354105E+01
 -1.612070818670E+01 -1.602998155496E+01 -1.593445845415E+01 -1.583415925045E+01
 -1.572911026364E+01 -1.561934420814E+01 -1.550490068729E+01 -1.538582674972E+01
 -1.526217751853E+01 -1.513401690502E+01 -1.500141842108E+01 -1.486446610595E+01
 -1.472325558541E+01 -1.457789528366E+01 -1.442850781095E+01 -1.427523155213E+01