<?xml version="1.0" encoding="UTF-8" ?>
<psml version="1.1" energy_unit="hartree" length_unit="bohr"
 uuid="251f56a0-be63-11e7-4e5e-9892bfff8d2d"
 xmlns="http://esl.cecam.org/PSML/ns/1.1">
<provenance creator="ONCVPSP-3.3.0+psml-3.3.0-73 (scalar-relativistic)"
 date="2017-10-31">
<annotation action="semilocal-pseudopotential-generation"
 action-cont="projectors-generation" />
<input-file name="oncvpsp-input">
<![CDATA[# atsym z nc nv iexc psfile
Co 27 3 4 4 upf
# n l f
1 0 2.0
2 0 2.0
2 1 6.0
3 0 2.0
3 1 6.0
3 2 7.0
4 0 2.0
# lmax
2
# l rc ep ncon nbas qcut
0 1.2 0.0 4 7 10.0
1 1.2 0.0 4 7 10.0
2 1.55 0.0 4 7 10.2
# lloc lpopt rc5 dvloc0
4 5 1.2 0.0
# l nproj debl
0 2 0.8
1 2 0.8
2 2 0.8
# icmod fcfact
3 6 1.8
# epsh1 epsh2 depsh
-12.0 12.0 0.02
# rlmax drl
6.0 0.01
 0
]]>
</input-file>
</provenance>
<pseudo-atom-spec atomic-label="Co" atomic-number="27" z-pseudo="17"
 flavor="Hamann&apos;s oncvpsp" relativity="scalar" spin-dft="no"
 core-corrections="yes">
<annotation pseudo-energy="-143.167606429" />
<exchange-correlation>
<annotation oncvpsp-xc-code="4" oncvpsp-xc-type="GGA -- Perdew-Burke-Ernzerhof" />
<libxc-info number-of-functionals="2">
<functional name="Perdew, Burke &amp; Ernzerhof (GGA)" type="exchange" id="101" />
<functional name="Perdew, Burke &amp; Ernzerhof (GGA)" type="correlation"
 id="130" />
</libxc-info>
</exchange-correlation>
<valence-configuration total-valence-charge="17">
<shell n="3" l="s" occupation="2" />
<shell n="3" l="p" occupation="6" />
<shell n="3" l="d" occupation="7" />
<shell n="4" l="s" occupation="2" />
</valence-configuration>
</pseudo-atom-spec>
<grid npts="457">
<annotation type="sampled from oncvpsp log grid"
 recipe="r(i:1..N) = r1*exp(a*(i-1)) + r=0; resampled"
 recipe-cont="r1: scale; a: step" scale="0.185185185185E-04"
 step="0.119285708653E-01" delta="0.500000000000E-02" rmax="44.1384555144" />
<grid-data>
  0.000000000000E+00  5.040192420950E-03  1.006738882075E-02  1.510268858140E-02
  2.010881910914E-02  2.522413632811E-02  3.052843244760E-02  3.564931321503E-02
  4.113555087463E-02  4.634708694971E-02  5.159968556889E-02  5.676637413542E-02
  6.245040443473E-02  6.788891108236E-02  7.292592018673E-02  7.833664953955E-02
  8.414882726703E-02  8.932039405154E-02  9.480979180144E-02  1.006365535764E-01
  1.068214128868E-01  1.120418749708E-01  1.175174659061E-01  1.232606540777E-01
  1.292845172121E-01  1.356027721566E-01  1.422298061135E-01  1.474117681829E-01
  1.527825284489E-01  1.583489655335E-01  1.641182086729E-01  1.700976468475E-01
  1.762949382462E-01  1.827180200740E-01  1.893751187181E-01  1.962747602834E-01
  2.034257815129E-01  2.108373411047E-01  2.159277978683E-01  2.211411586201E-01
  2.264803907538E-01  2.319485333081E-01  2.375486986963E-01  2.432840744777E-01
  2.491579251718E-01  2.551735941172E-01  2.613345053736E-01  2.676441656713E-01
  2.741061664073E-01  2.807241856890E-01  2.875019904283E-01  2.944434384852E-01
  3.015524808640E-01  3.088331639619E-01  3.162896318726E-01  3.239261287446E-01
  3.317470011970E-01  3.397567007939E-01  3.479597865779E-01  3.563609276650E-01
  3.649649059025E-01  3.737766185906E-01  3.828010812699E-01  3.920434305761E-01
  4.015089271639E-01  4.112029587013E-01  4.211310429362E-01  4.261846154515E-01
  4.312988308369E-01  4.364744168069E-01  4.417121098086E-01  4.470126551263E-01
  4.523768069878E-01  4.578053286717E-01  4.632989926157E-01  4.688585805271E-01
  4.744848834935E-01  4.801787020954E-01  4.859408465205E-01  4.917721366788E-01
  4.976734023189E-01  5.036454831467E-01  5.096892289445E-01  5.158054996918E-01
  5.219951656881E-01  5.282591076764E-01  5.345982169685E-01  5.410133955721E-01
  5.475055563190E-01  5.540756229948E-01  5.607245304708E-01  5.674532248364E-01
  5.742626635345E-01  5.811538154969E-01  5.881276612828E-01  5.951851932182E-01
  6.023274155368E-01  6.095553445233E-01  6.168700086576E-01  6.242724487615E-01
  6.317637181466E-01  6.393448827644E-01  6.470170213575E-01  6.547812256138E-01
  6.626386003212E-01  6.705902635250E-01  6.786373466873E-01  6.867809948476E-01
  6.950223667858E-01  7.033626351872E-01  7.118029868094E-01  7.203446226511E-01
  7.289887581230E-01  7.377366232204E-01  7.465894626991E-01  7.555485362515E-01
  7.646151186865E-01  7.737905001107E-01  7.830759861121E-01  7.924728979454E-01
  8.019825727207E-01  8.116063635934E-01  8.213456399565E-01  8.312017876360E-01
  8.411762090876E-01  8.512703235967E-01  8.614855674798E-01  8.718233942896E-01
  8.822852750211E-01  8.928726983213E-01  9.035871707012E-01  9.144302167496E-01
  9.254033793506E-01  9.365082199028E-01  9.477463185416E-01  9.591192743641E-01
  9.706287056565E-01  9.822762501244E-01  9.940635651259E-01  1.005992327907E+00
  1.018064235842E+00  1.030281006672E+00  1.042644378752E+00  1.055156111297E+00
  1.067817984633E+00  1.080631800449E+00  1.093599382054E+00  1.106722574639E+00
  1.120003245534E+00  1.133443284481E+00  1.147044603895E+00  1.160809139141E+00
  1.174738848811E+00  1.188835714997E+00  1.203101743577E+00  1.217538964500E+00
  1.232149432074E+00  1.246935225258E+00  1.261898447962E+00  1.277041229337E+00
  1.292365724089E+00  1.307874112778E+00  1.323568602132E+00  1.339451425357E+00
  1.355524842461E+00  1.371791140571E+00  1.388252634258E+00  1.404911665869E+00
  1.421770605859E+00  1.438831853130E+00  1.456097835367E+00  1.473571009392E+00
  1.491253861504E+00  1.509148907842E+00  1.527258694736E+00  1.545585799073E+00
  1.564132828662E+00  1.582902422606E+00  1.601897251677E+00  1.621120018697E+00
  1.640573458922E+00  1.660260340429E+00  1.680183464514E+00  1.700345666088E+00
  1.720749814081E+00  1.741398811850E+00  1.762295597592E+00  1.783443144764E+00
  1.804844462501E+00  1.826502596051E+00  1.848420627203E+00  1.870601674730E+00
  1.893048894827E+00  1.915765481564E+00  1.938754667343E+00  1.962019723351E+00
  1.985563960032E+00  2.009390727552E+00  2.033503416283E+00  2.057905457278E+00
  2.082600322765E+00  2.107591526639E+00  2.132882624958E+00  2.158477216458E+00
  2.184378943055E+00  2.210591490372E+00  2.237118588256E+00  2.263964011315E+00
  2.291131579451E+00  2.318625158405E+00  2.346448660305E+00  2.374606044229E+00
  2.403101316760E+00  2.431938532561E+00  2.461121794952E+00  2.490655256491E+00
  2.520543119569E+00  2.550789637004E+00  2.581399112648E+00  2.612375902000E+00
  2.643724412824E+00  2.675449105778E+00  2.707554495047E+00  2.740045148987E+00
  2.772925690775E+00  2.806200799065E+00  2.839875208653E+00  2.873953711157E+00
  2.908441155691E+00  2.943342449559E+00  2.978662558954E+00  3.014406509662E+00
  3.050579387777E+00  3.087186340431E+00  3.124232576516E+00  3.161723367434E+00
  3.199664047843E+00  3.238060016417E+00  3.276916736614E+00  3.316239737454E+00
  3.356034614303E+00  3.396307029675E+00  3.437062714031E+00  3.478307466599E+00
  3.520047156199E+00  3.562287722073E+00  3.605035174738E+00  3.648295596835E+00
  3.692075143997E+00  3.736380045725E+00  3.781216606273E+00  3.826591205549E+00
  3.872510300015E+00  3.918980423615E+00  3.966008188699E+00  4.013600286963E+00
  4.061763490407E+00  4.110504652292E+00  4.159830708119E+00  4.209748676617E+00
  4.260265660736E+00  4.311388848665E+00  4.363125514849E+00  4.415483021027E+00
  4.468468817279E+00  4.522090443087E+00  4.576355528404E+00  4.631271794745E+00
  4.686847056281E+00  4.743089220957E+00  4.800006291608E+00  4.857606367108E+00
  4.915897643513E+00  4.974888415235E+00  5.034587076218E+00  5.095002121133E+00
  5.156142146586E+00  5.218015852345E+00  5.280632042573E+00  5.343999627084E+00
  5.408127622609E+00  5.473025154080E+00  5.538701455929E+00  5.605165873401E+00
  5.672427863881E+00  5.740496998248E+00  5.809382962227E+00  5.879095557774E+00
  5.949644704467E+00  6.021040440921E+00  6.093292926212E+00  6.166412441326E+00
  6.240409390622E+00  6.315294303310E+00  6.391077834949E+00  6.467770768969E+00
  6.545384018196E+00  6.623928626415E+00  6.703415769932E+00  6.783856759171E+00
  6.865263040281E+00  6.947646196764E+00  7.031017951125E+00  7.115390166539E+00
  7.200774848537E+00  7.287184146720E+00  7.374630356480E+00  7.463125920758E+00
  7.552683431807E+00  7.643315632989E+00  7.735035420585E+00  7.827855845632E+00
  7.921790115779E+00  8.016851597169E+00  8.113053816335E+00  8.210410462131E+00
  8.308935387676E+00  8.408642612329E+00  8.509546323676E+00  8.611660879561E+00
  8.715000810115E+00  8.819580819837E+00  8.925415789675E+00  9.032520779151E+00
  9.140911028501E+00  9.250601960843E+00  9.361609184373E+00  9.473948494585E+00
  9.587635876520E+00  9.702687507039E+00  9.819119757123E+00  9.936949194208E+00
  1.005619258454E+01  1.017686689555E+01  1.029898929830E+01  1.042257716988E+01
  1.054764809592E+01  1.067421987307E+01  1.080231051155E+01  1.093193823768E+01
  1.106312149654E+01  1.119587895450E+01  1.133022950195E+01  1.146619225597E+01
  1.160378656304E+01  1.174303200180E+01  1.188394838582E+01  1.202655576645E+01
  1.217087443565E+01  1.231692492888E+01  1.246472802802E+01  1.261430476436E+01
  1.276567642153E+01  1.291886453859E+01  1.307389091305E+01  1.323077760401E+01
  1.338954693526E+01  1.355022149848E+01  1.371282415646E+01  1.387737804634E+01
  1.404390658290E+01  1.421243346189E+01  1.438298266343E+01  1.455557845540E+01
  1.473024539686E+01  1.490700834162E+01  1.508589244172E+01  1.526692315102E+01
  1.545012622884E+01  1.563552774358E+01  1.582315407650E+01  1.601303192542E+01
  1.620518830853E+01  1.639965056823E+01  1.659644637505E+01  1.679560373155E+01
  1.699715097633E+01  1.720111678804E+01  1.740753018950E+01  1.761642055177E+01
  1.782781759840E+01  1.804175140958E+01  1.825825242649E+01  1.847735145561E+01
  1.869907967308E+01  1.892346862915E+01  1.915055025270E+01  1.938035685574E+01
  1.961292113800E+01  1.984827619166E+01  2.008645550596E+01  2.032749297203E+01
  2.057142288770E+01  2.081827996235E+01  2.106809932190E+01  2.132091651376E+01
  2.157676751193E+01  2.183568872207E+01  2.209771698673E+01  2.236288959057E+01
  2.263124426566E+01  2.290281919685E+01  2.317765302721E+01  2.345578486354E+01
  2.373725428190E+01  2.402210133328E+01  2.431036654928E+01  2.460209094787E+01
  2.489731603925E+01  2.519608383172E+01  2.549843683770E+01  2.580441807975E+01
  2.611407109671E+01  2.642743994987E+01  2.674456922927E+01  2.706550406002E+01
  2.739029010874E+01  2.771897359004E+01  2.805160127312E+01  2.838822048840E+01
  2.872887913426E+01  2.907362568387E+01  2.942250919208E+01  2.977557930239E+01
  3.013288625401E+01  3.049448088906E+01  3.086041465973E+01  3.123073963565E+01
  3.160550851128E+01  3.198477461341E+01  3.236859190877E+01  3.275701501168E+01
  3.315009919182E+01  3.354790038212E+01  3.395047518670E+01  3.435788088895E+01
  3.477017545961E+01  3.518741756513E+01  3.560966657591E+01  3.603698257482E+01
  3.646942636572E+01  3.690705948211E+01  3.734994419589E+01  3.779814352624E+01
  3.825172124856E+01  3.871074190354E+01  3.917527080638E+01  3.964537405606E+01
  4.012111854473E+01  4.060257196727E+01  4.108980283088E+01  4.158288046485E+01
  4.208187503042E+01  4.258685753079E+01  4.309789982116E+01  4.361507461901E+01
  4.413845551444E+01
</grid-data>
</grid>
<valence-charge total-charge="17" is-unscreening-charge="yes"
 rescaled-to-z-pseudo="no">
<radfunc>
<data npts="457">
  9.785518715144E+00  9.794069757129E+00  9.819627901217E+00  9.862255121043E+00
  9.921495505075E+00  9.999344166207E+00  1.009848519748E+01  1.021190534284E+01
  1.035261089867E+01  1.050453956184E+01  1.067554022831E+01  1.086110581474E+01
  1.108495292078E+01  1.131824549402E+01  1.155079351153E+01  1.181802664812E+01
  1.212491793280E+01  1.241498733795E+01  1.274010820111E+01  1.310426530872E+01
  1.351182623810E+01  1.387231506938E+01  1.426625342927E+01  1.469643774207E+01
  1.516582963579E+01  1.567754894503E+01  1.623486131379E+01  1.668480264037E+01
  1.716376534969E+01  1.767324146130E+01  1.821473491611E+01  1.878974814395E+01
  1.939976569278E+01  2.004623447895E+01  2.073054017231E+01  2.145397918567E+01
  2.221772569550E+01  2.302279308450E+01  2.358286961175E+01  2.416185346694E+01
  2.475986456279E+01  2.537695623137E+01  2.601310619085E+01  2.666820675243E+01
  2.734205424240E+01  2.803433762044E+01  2.874462628412E+01  2.947235706030E+01
  3.021682039762E+01  3.097714579081E+01  3.175228648760E+01  3.254100355237E+01
  3.334184938928E+01  3.415315085969E+01  3.497299216659E+01  3.579919772200E+01
  3.662931526126E+01  3.746059952307E+01  3.828999687332E+01  3.911413131605E+01
  3.992929240464E+01  4.073142563927E+01  4.151612601220E+01  4.227863543814E+01
  4.301384487939E+01  4.371630204283E+01  4.438022558229E+01  4.469584576343E+01
  4.499952678117E+01  4.529046446417E+01  4.556783971015E+01  4.583081996081E+01
  4.607856084660E+01  4.631020800772E+01  4.652489909747E+01  4.672176597307E+01
  4.689993707868E+01  4.705854002402E+01  4.719670436124E+01  4.731356456131E+01
  4.740826318979E+01  4.747995428043E+01  4.752780690340E+01  4.755100892265E+01
  4.754877093562E+01  4.752033038549E+01  4.746495583441E+01  4.738195138347E+01
  4.727066122221E+01  4.713047428822E+01  4.696082901408E+01  4.676121813605E+01
  4.653119353589E+01  4.627037108424E+01  4.597843545062E+01  4.565514484255E+01
  4.530033563310E+01  4.491392683348E+01  4.449592436494E+01  4.404642508169E+01
  4.356562049505E+01  4.305380014706E+01  4.251135458116E+01  4.193877785683E+01
  4.133666955524E+01  4.070573622390E+01  4.004679220974E+01  3.936075983255E+01
  3.864866885384E+01  3.791165520057E+01  3.715095890810E+01  3.636792125285E+01
  3.556398105247E+01  3.474067011876E+01  3.389960785822E+01  3.304249502410E+01
  3.217110663502E+01  3.128728408587E+01  3.039292648874E+01  2.948998129335E+01
  2.858043424893E+01  2.766629878126E+01  2.674960487075E+01  2.583238752829E+01
  2.491667497647E+01  2.400447665268E+01  2.309777115881E+01  2.219849428854E+01
  2.130852726748E+01  2.042968534382E+01  1.956370686698E+01  1.871224298923E+01
  1.787684812003E+01  1.705897125497E+01  1.625994829077E+01  1.548099542478E+01
  1.472320372179E+01  1.398753491382E+01  1.327481847869E+01  1.258575002270E+01
  1.192089097085E+01  1.128066954584E+01  1.066538299493E+01  1.007520100250E+01
  9.510170205925E+00  8.970219714313E+00  8.455167514110E+00  7.964727632661E+00
  7.498517921785E+00  7.056068317837E+00  6.636829433177E+00  6.240181336508E+00
  5.865442385950E+00  5.511877988898E+00  5.178709176223E+00  4.865121327025E+00
  4.570274351616E+00  4.293313879834E+00  4.033378089989E+00  3.789604144969E+00
  3.561134157896E+00  3.347120707762E+00  3.146731853903E+00  2.959155650872E+00
  2.783604164275E+00  2.619316993743E+00  2.465564312431E+00  2.321649434142E+00
  2.186910919577E+00  2.060724232601E+00  1.942502956121E+00  1.831699575565E+00
  1.727805836348E+00  1.630352680535E+00  1.538909767404E+00  1.453084583006E+00
  1.372521145353E+00  1.296897042025E+00  1.225915166331E+00  1.159292734180E+00
  1.096761047175E+00  1.038065074397E+00  9.829630976864E-01  9.312263322268E-01
  8.826385266522E-01  8.369955466449E-01  7.941049457204E-01  7.537855266311E-01
  7.158668965474E-01  6.801890189045E-01  6.466017645340E-01  6.149644644332E-01
  5.851454662715E-01  5.570216964819E-01  5.304782295530E-01  5.054078659155E-01
  4.817107196070E-01  4.592938167160E-01  4.380707054247E-01  4.179610783214E-01
  3.988904075086E-01  3.807895929087E-01  3.635946240612E-01  3.472462556037E-01
  3.316896965455E-01  3.168743133620E-01  3.027533468735E-01  2.892836428061E-01
  2.764253958831E-01  2.641419072394E-01  2.523993549135E-01  2.411665771297E-01
  2.304148680470E-01  2.201177856258E-01  2.102509712322E-01  2.007919805820E-01
  1.917201256080E-01  1.830163268190E-01  1.746629757120E-01  1.666438067896E-01
  1.589437787349E-01  1.515489642929E-01  1.444464484143E-01  1.376242342176E-01
  1.310711563395E-01  1.247768012466E-01  1.187314340969E-01  1.129259317506E-01
  1.073517215430E-01  1.020007254468E-01  9.686530926753E-02  9.193823653042E-02
  8.721262673288E-02  8.268191765490E-02  7.833983143393E-02  7.418034412832E-02
  7.019765850915E-02  6.638617983584E-02  6.274049438627E-02  5.925535052677E-02
  5.592564212113E-02  5.274639409117E-02  4.971274995333E-02  4.681996116752E-02
  4.406337814440E-02  4.143844276694E-02  3.894068229040E-02  3.656570449094E-02
  3.430919394936E-02  3.216690933433E-02  3.013468159717E-02  2.820841295907E-02
  2.638407659172E-02  2.465771689375E-02  2.302545026920E-02  2.148346631837E-02
  2.002802935573E-02  1.865548017396E-02  1.736223797821E-02  1.614480241967E-02
  1.499975566320E-02  1.392376442960E-02  1.291358195908E-02  1.196604984908E-02
  1.107809972569E-02  1.024675471455E-02  9.469130683457E-03  8.742437235030E-03
  8.063978433790E-03  7.431153257593E-03  6.841455768605E-03  6.292475003792E-03
  5.781894589166E-03  5.307492085871E-03  4.867138079427E-03  4.458795026229E-03
  4.080515873637E-03  3.730442471733E-03  3.406803796105E-03  3.107914001863E-03
  2.832170329487E-03  2.578050883213E-03  2.344112302352E-03  2.128987345380E-03
  1.931382405847E-03  1.750074978096E-03  1.583911089628E-03  1.431802715618E-03
  1.292725189696E-03  1.165714623649E-03  1.049865347258E-03  9.443273780143E-04
  8.483039290869E-04  7.610489625757E-04  6.818647938556E-04  6.100997516971E-04
  5.451458978378E-04  4.864368088018E-04  4.334454220056E-04  3.856819475552E-04
  3.426918466180E-04  3.040538768396E-04  2.693782049530E-04  2.383045864848E-04
  2.105006122852E-04  1.856600214856E-04  1.635010803942E-04  1.437650267848E-04
  1.262145789805E-04  1.106325090993E-04  9.682027978416E-05  8.459674369468E-05
  7.379690498349E-05  6.427074191197E-05  5.588208968410E-05  4.850758248896E-05
  4.203565364567E-05  3.636559264136E-05  3.140665774550E-05  2.707724277576E-05
  2.330409648347E-05  2.002159292530E-05  1.717105109180E-05  1.470010197792E-05
  1.256210120515E-05  1.071558524215E-05  9.123769221154E-06  7.754084311761E-06
  6.577752592222E-06  5.569397350680E-06  4.706686754923E-06  3.970008848130E-06
  3.342175859022E-06  2.808155856820E-06  2.354829833209E-06  1.970772353885E-06
  1.646053990709E-06  1.372063812970E-06  1.141350330061E-06  9.474792483620E-07
  7.849066650001E-07  6.488665152978E-07  5.352702694630E-07  4.406182091959E-07
  3.619213922254E-07  2.966329071098E-07  2.425874174628E-07  1.979481865460E-07
  1.611607854720E-07  1.309127437320E-07  1.060984687037E-07  8.578882389894E-08
  6.920481478741E-08  5.569488605134E-08  4.471538514002E-08  3.581379406481E-08
  2.861437462778E-08  2.280591184610E-08  1.813127638477E-08  1.437855952241E-08
  1.137356373995E-08  8.973458640005E-09  7.061435778134E-09  5.542217318798E-09
  4.338292419786E-09  3.386772093986E-09  2.636768185971E-09  2.047215213200E-09
  1.585065330222E-09  1.223796730043E-09  9.412420624866E-10  7.226098204231E-10
  5.531481335318E-10  4.221819571988E-10  3.212653355623E-10  2.437357260373E-10
  1.843531528648E-10  1.390089352460E-10  1.044912999473E-10  7.829735592750E-11
  5.848273454607E-11  4.354173177622E-11  3.231207114314E-11  2.389947504352E-11
  1.761812004665E-11  1.294378677155E-11  9.477121163115E-12  6.914922227184E-12
  5.027779294286E-12  3.642714794921E-12  2.629759178023E-12  1.891603825596E-12
  1.355654725518E-12  9.679518954794E-13  6.885334713350E-13  4.879142719632E-13
  3.444209046187E-13  2.421826832151E-13  1.696227525894E-13  1.183292586467E-13
  8.221414078551E-14  5.688873924191E-14  3.920218819778E-14  2.690153520541E-14
  1.838251173869E-14  1.250753359752E-14  8.473352610752E-15  5.715222178948E-15
  3.837800360584E-15  2.565546957720E-15  1.707271170389E-15  1.130905540478E-15
  7.456370683815E-16  4.893073472204E-16  3.195689167940E-16  2.077069507624E-16
  1.343433244044E-16  8.646378842687E-17  5.537066921450E-17  3.527983444288E-17
  2.236393230502E-17  1.410320566455E-17  8.847255759016E-18  5.520688045445E-18
  3.426447463468E-18  2.115111012286E-18  1.298470571580E-18  7.927061115472E-19
  4.812208104223E-19  2.904686653311E-19  1.743199587191E-19  1.040058469392E-19
  6.168800449176E-20  3.637015482774E-20  2.131374608185E-20  1.241403543320E-20
  7.185759003678E-21  4.133388172700E-21  2.362549883982E-21  0.000000000000E+00
  0.000000000000E+00  0.000000000000E+00  0.000000000000E+00  0.000000000000E+00
  0.000000000000E+00  0.000000000000E+00  0.000000000000E+00  0.000000000000E+00
  0.000000000000E+00  0.000000000000E+00  0.000000000000E+00  0.000000000000E+00
  0.000000000000E+00  0.000000000000E+00  0.000000000000E+00  0.000000000000E+00
  0.000000000000E+00
</data>
</radfunc>
</valence-charge>
<pseudocore-charge matching-radius="0.401508927164"
 number-of-continuous-derivatives="4">
<annotation model-charge-form="Teter function with specified parameters" />
<radfunc>
<data npts="290">
  2.659731569652E+02  2.659322892879E+02  2.658101425570E+02  2.656064282082E+02
  2.653233373866E+02  2.649513540530E+02  2.644776791248E+02  2.639358485060E+02
  2.632637673025E+02  2.625381969228E+02  2.617216864049E+02  2.608357954078E+02
  2.597673689285E+02  2.586541046998E+02  2.575446306954E+02  2.562699520357E+02
  2.548064478252E+02  2.534234727097E+02  2.518737060690E+02  2.501382277193E+02
  2.481962917584E+02  2.464789325974E+02  2.446024658026E+02  2.425535581152E+02
  2.403180539151E+02  2.378809899502E+02  2.352266285840E+02  2.330833817335E+02
  2.308014803964E+02  2.283735685872E+02  2.257921493241E+02  2.230496260350E+02
  2.201383527347E+02  2.170506940212E+02  2.137790959846E+02  2.103161691472E+02
  2.066547845557E+02  2.027881841127E+02  2.000933249068E+02  1.973027585451E+02
  1.944149272103E+02  1.914284413353E+02  1.883421031309E+02  1.851549316342E+02
  1.818661892577E+02  1.784754097952E+02  1.749824278159E+02  1.713874093463E+02
  1.676908837065E+02  1.638937763270E+02  1.599974423301E+02  1.560037006097E+02
  1.519148680911E+02  1.477337937944E+02  1.434638922622E+02  1.391091758443E+02
  1.346742852658E+02  1.301645178283E+02  1.255858525240E+02  1.209449712656E+02
  1.162492753683E+02  1.115068963508E+02  1.067267000645E+02  1.019182831146E+02
  9.709196050318E+01  9.225874341064E+01  8.743030604537E+01  8.502169840639E+01
  8.261894053114E+01  8.022365596624E+01  7.783749887769E+01  7.546215147375E+01
  7.309932119749E+01  7.075073768603E+01  6.841814949419E+01  6.610332058164E+01
  6.380802656381E+01  6.153405072840E+01  5.928317982061E+01  5.705719960215E+01
  5.485789019070E+01  5.268702118828E+01  5.054634660937E+01  4.843759962130E+01
  4.636248711186E+01  4.432268410150E+01  4.231982801956E+01  4.035551286667E+01
  3.843128328782E+01  3.654862858313E+01  3.470897668587E+01  3.291368813979E+01
  3.116405011011E+01  2.946127046505E+01  2.780647196688E+01  2.620068661363E+01
  2.464485017432E+01  2.313979696238E+01  2.168625489320E+01  2.028484087279E+01
  1.893605656519E+01  1.764028458655E+01  1.639778517349E+01  1.520869337278E+01
  1.407301679791E+01  1.299063399651E+01  1.196129346966E+01  1.098461338155E+01
  1.006008199358E+01  9.187058852771E+00  8.364776758943E+00  7.592344529346E+00
  6.868750572520E+00  6.192867276081E+00  5.563456205052E+00  4.979174098895E+00
  4.438579646375E+00  3.940141007970E+00  3.482244045803E+00  3.063201211199E+00
  2.681261029965E+00  2.334618115731E+00  2.021423632078E+00  1.739796115132E+00
  1.487832559911E+00  1.263619666104E+00  1.065245132557E+00  8.908088844798E-01
  7.384341137070E-01  6.062780102621E-01  4.925420632694E-01  3.954818110150E-01
  3.134159238374E-01  2.447345095870E-01  1.879065396943E-01  1.414863044006E-01
  1.041188183885E-01  7.454411277651E-02  5.160036602148E-02  3.422584448099E-02
  2.145964289050E-02  1.244123546017E-02  6.408869252004E-03  2.696852490746E-03
  7.318109732795E-04  2.800522691138E-05  1.818189712600E-04  8.655452078986E-04
  1.820609368116E-03  2.850378906732E-03  3.812715119296E-03  4.612425448107E-03
  5.193772903170E-03  5.533193356521E-03  5.632361411629E-03  5.511731493916E-03
  5.204663100630E-03  4.752218289753E-03  4.198696127208E-03  3.587943728389E-03
  2.960457610228E-03  2.351263274569E-03  1.788536270092E-03  1.292905417682E-03
  8.773593661990E-04  5.476619988595E-04  3.031711069090E-04  1.379486592264E-04
  4.205015986144E-05  2.884972810788E-06  6.548801300325E-06  3.904316114687E-05
  8.731385575252E-05  1.400601014589E-04  1.882868658808E-04  2.255938807521E-04
  2.482143819332E-04  2.548337028985E-04  2.462313660047E-04  2.247994924676E-04
  1.939947208058E-04  1.577802826632E-04  1.201097150368E-04  8.449453874971E-05
  5.368607704696E-05  2.948764278602E-05  1.269894536304E-05  3.181133473828E-06
  1.965669061010E-08  1.754116546520E-06  6.640157351280E-06  1.290846641163E-05
  1.898990600830E-05  2.368304202886E-05  2.624985623053E-05  2.643596986853E-05
  2.442190655764E-05  2.072049440678E-05  1.604140391834E-05  1.114637239634E-05
  6.717686708521E-06  3.258298875645E-06  1.035310722651E-06  7.061153057731E-08
  0.000000000000E+00  0.000000000000E+00  0.000000000000E+00  0.000000000000E+00
  0.000000000000E+00  0.000000000000E+00  0.000000000000E+00  0.000000000000E+00
  0.000000000000E+00  0.000000000000E+00  0.000000000000E+00  0.000000000000E+00
  0.000000000000E+00  0.000000000000E+00  0.000000000000E+00  0.000000000000E+00
  0.000000000000E+00  0.000000000000E+00  0.000000000000E+00  0.000000000000E+00
  0.000000000000E+00  0.000000000000E+00  0.000000000000E+00  0.000000000000E+00
  0.000000000000E+00  0.000000000000E+00  0.000000000000E+00  0.000000000000E+00
  0.000000000000E+00  0.000000000000E+00  0.000000000000E+00  0.000000000000E+00
  0.000000000000E+00  0.000000000000E+00  0.000000000000E+00  0.000000000000E+00
  0.000000000000E+00  0.000000000000E+00  0.000000000000E+00  0.000000000000E+00
  0.000000000000E+00  0.000000000000E+00  0.000000000000E+00  0.000000000000E+00
  0.000000000000E+00  0.000000000000E+00  0.000000000000E+00  0.000000000000E+00
  0.000000000000E+00  0.000000000000E+00  0.000000000000E+00  0.000000000000E+00
  0.000000000000E+00  0.000000000000E+00  0.000000000000E+00  0.000000000000E+00
  0.000000000000E+00  0.000000000000E+00  0.000000000000E+00  0.000000000000E+00
  0.000000000000E+00  0.000000000000E+00  0.000000000000E+00  0.000000000000E+00
  0.000000000000E+00  0.000000000000E+00  0.000000000000E+00  0.000000000000E+00
  0.000000000000E+00  0.000000000000E+00  0.000000000000E+00  0.000000000000E+00
  0.000000000000E+00  0.000000000000E+00  0.000000000000E+00  0.000000000000E+00
  0.000000000000E+00  0.000000000000E+00  0.000000000000E+00  0.000000000000E+00
  0.000000000000E+00  0.000000000000E+00  0.000000000000E+00  0.000000000000E+00
  0.000000000000E+00  0.000000000000E+00
</data>
</radfunc>
</pseudocore-charge>
<semilocal-potentials set="scalar_relativistic">
<slps n="3" l="s" rc="1.20310174358" eref="-3.76330284905">
<radfunc>
<data npts="290">
 -1.914796548154E+01 -1.914924907057E+01 -1.915308494227E+01 -1.915948058944E+01
 -1.916836463496E+01 -1.918003189746E+01 -1.919487813527E+01 -1.921184601089E+01
 -1.923287121516E+01 -1.925554292269E+01 -1.928102286472E+01 -1.930862790808E+01
 -1.934186548880E+01 -1.937643339603E+01 -1.941081801012E+01 -1.945024165457E+01
 -1.949539841768E+01 -1.953796519660E+01 -1.958554391997E+01 -1.963867102074E+01
 -1.969792603291E+01 -1.975015879014E+01 -1.980704811634E+01 -1.986894685791E+01
 -1.993622158207E+01 -2.000925008769E+01 -2.008841805396E+01 -2.015205718712E+01
 -2.021953245264E+01 -2.029100535396E+01 -2.036663328880E+01 -2.044656736521E+01
 -2.053094988363E+01 -2.061991145484E+01 -2.071356772367E+01 -2.081201566926E+01
 -2.091532945410E+01 -2.102355579718E+01 -2.109844438676E+01 -2.117551841703E+01
 -2.125476455857E+01 -2.133616029962E+01 -2.141967305463E+01 -2.150525922743E+01
 -2.159286323035E+01 -2.168241646096E+01 -2.177383623854E+01 -2.186702470327E+01
 -2.196186768182E+01 -2.205823352351E+01 -2.215597191252E+01 -2.225491266198E+01
 -2.235486449724E+01 -2.245561383623E+01 -2.255692357619E+01 -2.265853189702E+01
 -2.276015109272E+01 -2.286146644389E+01 -2.296213514513E+01 -2.306178530306E+01
 -2.316001502177E+01 -2.325639159409E+01 -2.335045081869E+01 -2.344169646447E+01
 -2.352959990527E+01 -2.361359994951E+01 -2.369310289108E+01 -2.373097359267E+01
 -2.376748280893E+01 -2.380254736082E+01 -2.383608214463E+01 -2.386800016742E+01
 -2.389821258792E+01 -2.392662876329E+01 -2.395315630188E+01 -2.397770112236E+01
 -2.400016751940E+01 -2.402045823612E+01 -2.403847454369E+01 -2.405411632816E+01
 -2.406728218495E+01 -2.407786952100E+01 -2.408577466511E+01 -2.409089298637E+01
 -2.409311902115E+01 -2.409234660873E+01 -2.408846903570E+01 -2.408137918950E+01
 -2.407096972102E+01 -2.405713321658E+01 -2.403976237932E+01 -2.401875022013E+01
 -2.399399025825E+01 -2.396537673152E+01 -2.393280481638E+01 -2.389617085774E+01
 -2.385537260855E+01 -2.381030947924E+01 -2.376088279703E+01 -2.370699607495E+01
 -2.364855529075E+01 -2.358546917563E+01 -2.351764951276E+01 -2.344501144575E+01
 -2.336747379703E+01 -2.328495939636E+01 -2.319739541966E+01 -2.310471373831E+01
 -2.300685127948E+01 -2.290375039777E+01 -2.279535925900E+01 -2.268163223664E+01
 -2.256253032212E+01 -2.243802155009E+01 -2.230808143992E+01 -2.217269345540E+01
 -2.203184948436E+01 -2.188555034075E+01 -2.173380629178E+01 -2.157663761333E+01
 -2.141407517719E+01 -2.124616107424E+01 -2.107294927826E+01 -2.089450635564E+01
 -2.071091222697E+01 -2.052226098716E+01 -2.032866179156E+01 -2.013023981656E+01
 -1.992713730389E+01 -1.971951469891E+01 -1.950755189450E+01 -1.929144959287E+01
 -1.907143079925E+01 -1.884774246224E+01 -1.862065727679E+01 -1.839047566683E+01
 -1.815752796495E+01 -1.792217680697E+01 -1.768481975831E+01 -1.744589218784E+01
 -1.720587040153E+01 -1.696527504351E+01 -1.672467476451E+01 -1.648469014717E+01
 -1.624599786339E+01 -1.600933501991E+01 -1.577550362457E+01 -1.554537507624E+01
 -1.531989454721E+01 -1.510008508738E+01 -1.488705123720E+01 -1.468198189333E+01
 -1.448615213060E+01 -1.430092350227E+01 -1.412774433442E+01 -1.396209881850E+01