<?xml version="1.0" encoding="UTF-8" ?>
<psml version="1.1" energy_unit="hartree" length_unit="bohr"
 uuid="f8b06170-be41-11e7-7df2-e588fffddcf6"
 xmlns="http://esl.cecam.org/PSML/ns/1.1">
<provenance creator="ONCVPSP-3.3.0+psml-3.3.0-73 (scalar-relativistic)"
 date="2017-10-31">
<annotation action="semilocal-pseudopotential-generation"
 action-cont="projectors-generation" />
<input-file name="oncvpsp-input">
<![CDATA[# atsym z nc nv iexc psfile
Co 27 3 4 4 upf
# n l f
1 0 2.0
2 0 2.0
2 1 6.0
3 0 2.0
3 1 6.0
3 2 7.0
4 0 2.0
# lmax
2
# l rc ep ncon nbas qcut
0 1.25 0.0 4 7 9.3
1 1.32 0.0 4 7 9.7
2 1.65 0.0 4 7  9.5
# lloc lpopt rc5 dvloc0
4 5 1.2 0.0
# l nproj debl
0 2 0.8
1 2 0.8
2 2 0.8
# icmod fcfact
3 6 1.8
# epsh1 epsh2 depsh
-12.0 12.0 0.02
# rlmax drl
6.0 0.01
 0
]]>
</input-file>
</provenance>
<pseudo-atom-spec atomic-label="Co" atomic-number="27" z-pseudo="17"
 flavor="Hamann&apos;s oncvpsp" relativity="scalar" spin-dft="no"
 core-corrections="yes">
<annotation pseudo-energy="-142.184474374" />
<exchange-correlation>
<annotation oncvpsp-xc-code="4" oncvpsp-xc-type="GGA -- Perdew-Burke-Ernzerhof" />
<libxc-info number-of-functionals="2">
<functional name="Perdew, Burke &amp; Ernzerhof (GGA)" type="exchange" id="101" />
<functional name="Perdew, Burke &amp; Ernzerhof (GGA)" type="correlation"
 id="130" />
</libxc-info>
</exchange-correlation>
<valence-configuration total-valence-charge="17">
<shell n="3" l="s" occupation="2" />
<shell n="3" l="p" occupation="6" />
<shell n="3" l="d" occupation="7" />
<shell n="4" l="s" occupation="2" />
</valence-configuration>
</pseudo-atom-spec>
<grid npts="457">
<annotation type="sampled from oncvpsp log grid"
 recipe="r(i:1..N) = r1*exp(a*(i-1)) + r=0; resampled"
 recipe-cont="r1: scale; a: step" scale="0.185185185185E-04"
 step="0.119285708653E-01" delta="0.500000000000E-02" rmax="44.1384555144" />
<grid-data>
  0.000000000000E+00  5.040192420950E-03  1.006738882075E-02  1.510268858140E-02
  2.010881910914E-02  2.522413632811E-02  3.052843244760E-02  3.564931321503E-02
  4.113555087463E-02  4.634708694971E-02  5.159968556889E-02  5.676637413542E-02
  6.245040443473E-02  6.788891108236E-02  7.292592018673E-02  7.833664953955E-02
  8.414882726703E-02  8.932039405154E-02  9.480979180144E-02  1.006365535764E-01
  1.068214128868E-01  1.120418749708E-01  1.175174659061E-01  1.232606540777E-01
  1.292845172121E-01  1.356027721566E-01  1.422298061135E-01  1.474117681829E-01
  1.527825284489E-01  1.583489655335E-01  1.641182086729E-01  1.700976468475E-01
  1.762949382462E-01  1.827180200740E-01  1.893751187181E-01  1.962747602834E-01
  2.034257815129E-01  2.108373411047E-01  2.159277978683E-01  2.211411586201E-01
  2.264803907538E-01  2.319485333081E-01  2.375486986963E-01  2.432840744777E-01
  2.491579251718E-01  2.551735941172E-01  2.613345053736E-01  2.676441656713E-01
  2.741061664073E-01  2.807241856890E-01  2.875019904283E-01  2.944434384852E-01
  3.015524808640E-01  3.088331639619E-01  3.162896318726E-01  3.239261287446E-01
  3.317470011970E-01  3.397567007939E-01  3.479597865779E-01  3.563609276650E-01
  3.649649059025E-01  3.737766185906E-01  3.828010812699E-01  3.920434305761E-01
  4.015089271639E-01  4.112029587013E-01  4.211310429362E-01  4.261846154515E-01
  4.312988308369E-01  4.364744168069E-01  4.417121098086E-01  4.470126551263E-01
  4.523768069878E-01  4.578053286717E-01  4.632989926157E-01  4.688585805271E-01
  4.744848834935E-01  4.801787020954E-01  4.859408465205E-01  4.917721366788E-01
  4.976734023189E-01  5.036454831467E-01  5.096892289445E-01  5.158054996918E-01
  5.219951656881E-01  5.282591076764E-01  5.345982169685E-01  5.410133955721E-01
  5.475055563190E-01  5.540756229948E-01  5.607245304708E-01  5.674532248364E-01
  5.742626635345E-01  5.811538154969E-01  5.881276612828E-01  5.951851932182E-01
  6.023274155368E-01  6.095553445233E-01  6.168700086576E-01  6.242724487615E-01
  6.317637181466E-01  6.393448827644E-01  6.470170213575E-01  6.547812256138E-01
  6.626386003212E-01  6.705902635250E-01  6.786373466873E-01  6.867809948476E-01
  6.950223667858E-01  7.033626351872E-01  7.118029868094E-01  7.203446226511E-01
  7.289887581230E-01  7.377366232204E-01  7.465894626991E-01  7.555485362515E-01
  7.646151186865E-01  7.737905001107E-01  7.830759861121E-01  7.924728979454E-01
  8.019825727207E-01  8.116063635934E-01  8.213456399565E-01  8.312017876360E-01
  8.411762090876E-01  8.512703235967E-01  8.614855674798E-01  8.718233942896E-01
  8.822852750211E-01  8.928726983213E-01  9.035871707012E-01  9.144302167496E-01
  9.254033793506E-01  9.365082199028E-01  9.477463185416E-01  9.591192743641E-01
  9.706287056565E-01  9.822762501244E-01  9.940635651259E-01  1.005992327907E+00
  1.018064235842E+00  1.030281006672E+00  1.042644378752E+00  1.055156111297E+00
  1.067817984633E+00  1.080631800449E+00  1.093599382054E+00  1.106722574639E+00
  1.120003245534E+00  1.133443284481E+00  1.147044603895E+00  1.160809139141E+00
  1.174738848811E+00  1.188835714997E+00  1.203101743577E+00  1.217538964500E+00
  1.232149432074E+00  1.246935225258E+00  1.261898447962E+00  1.277041229337E+00
  1.292365724089E+00  1.307874112778E+00  1.323568602132E+00  1.339451425357E+00
  1.355524842461E+00  1.371791140571E+00  1.388252634258E+00  1.404911665869E+00
  1.421770605859E+00  1.438831853130E+00  1.456097835367E+00  1.473571009392E+00
  1.491253861504E+00  1.509148907842E+00  1.527258694736E+00  1.545585799073E+00
  1.564132828662E+00  1.582902422606E+00  1.601897251677E+00  1.621120018697E+00
  1.640573458922E+00  1.660260340429E+00  1.680183464514E+00  1.700345666088E+00
  1.720749814081E+00  1.741398811850E+00  1.762295597592E+00  1.783443144764E+00
  1.804844462501E+00  1.826502596051E+00  1.848420627203E+00  1.870601674730E+00
  1.893048894827E+00  1.915765481564E+00  1.938754667343E+00  1.962019723351E+00
  1.985563960032E+00  2.009390727552E+00  2.033503416283E+00  2.057905457278E+00
  2.082600322765E+00  2.107591526639E+00  2.132882624958E+00  2.158477216458E+00
  2.184378943055E+00  2.210591490372E+00  2.237118588256E+00  2.263964011315E+00
  2.291131579451E+00  2.318625158405E+00  2.346448660305E+00  2.374606044229E+00
  2.403101316760E+00  2.431938532561E+00  2.461121794952E+00  2.490655256491E+00
  2.520543119569E+00  2.550789637004E+00  2.581399112648E+00  2.612375902000E+00
  2.643724412824E+00  2.675449105778E+00  2.707554495047E+00  2.740045148987E+00
  2.772925690775E+00  2.806200799065E+00  2.839875208653E+00  2.873953711157E+00
  2.908441155691E+00  2.943342449559E+00  2.978662558954E+00  3.014406509662E+00
  3.050579387777E+00  3.087186340431E+00  3.124232576516E+00  3.161723367434E+00
  3.199664047843E+00  3.238060016417E+00  3.276916736614E+00  3.316239737454E+00
  3.356034614303E+00  3.396307029675E+00  3.437062714031E+00  3.478307466599E+00
  3.520047156199E+00  3.562287722073E+00  3.605035174738E+00  3.648295596835E+00
  3.692075143997E+00  3.736380045725E+00  3.781216606273E+00  3.826591205549E+00
  3.872510300015E+00  3.918980423615E+00  3.966008188699E+00  4.013600286963E+00
  4.061763490407E+00  4.110504652292E+00  4.159830708119E+00  4.209748676617E+00
  4.260265660736E+00  4.311388848665E+00  4.363125514849E+00  4.415483021027E+00
  4.468468817279E+00  4.522090443087E+00  4.576355528404E+00  4.631271794745E+00
  4.686847056281E+00  4.743089220957E+00  4.800006291608E+00  4.857606367108E+00
  4.915897643513E+00  4.974888415235E+00  5.034587076218E+00  5.095002121133E+00
  5.156142146586E+00  5.218015852345E+00  5.280632042573E+00  5.343999627084E+00
  5.408127622609E+00  5.473025154080E+00  5.538701455929E+00  5.605165873401E+00
  5.672427863881E+00  5.740496998248E+00  5.809382962227E+00  5.879095557774E+00
  5.949644704467E+00  6.021040440921E+00  6.093292926212E+00  6.166412441326E+00
  6.240409390622E+00  6.315294303310E+00  6.391077834949E+00  6.467770768969E+00
  6.545384018196E+00  6.623928626415E+00  6.703415769932E+00  6.783856759171E+00
  6.865263040281E+00  6.947646196764E+00  7.031017951125E+00  7.115390166539E+00
  7.200774848537E+00  7.287184146720E+00  7.374630356480E+00  7.463125920758E+00
  7.552683431807E+00  7.643315632989E+00  7.735035420585E+00  7.827855845632E+00
  7.921790115779E+00  8.016851597169E+00  8.113053816335E+00  8.210410462131E+00
  8.308935387676E+00  8.408642612329E+00  8.509546323676E+00  8.611660879561E+00
  8.715000810115E+00  8.819580819837E+00  8.925415789675E+00  9.032520779151E+00
  9.140911028501E+00  9.250601960843E+00  9.361609184373E+00  9.473948494585E+00
  9.587635876520E+00  9.702687507039E+00  9.819119757123E+00  9.936949194208E+00
  1.005619258454E+01  1.017686689555E+01  1.029898929830E+01  1.042257716988E+01
  1.054764809592E+01  1.067421987307E+01  1.080231051155E+01  1.093193823768E+01
  1.106312149654E+01  1.119587895450E+01  1.133022950195E+01  1.146619225597E+01
  1.160378656304E+01  1.174303200180E+01  1.188394838582E+01  1.202655576645E+01
  1.217087443565E+01  1.231692492888E+01  1.246472802802E+01  1.261430476436E+01
  1.276567642153E+01  1.291886453859E+01  1.307389091305E+01  1.323077760401E+01
  1.338954693526E+01  1.355022149848E+01  1.371282415646E+01  1.387737804634E+01
  1.404390658290E+01  1.421243346189E+01  1.438298266343E+01  1.455557845540E+01
  1.473024539686E+01  1.490700834162E+01  1.508589244172E+01  1.526692315102E+01
  1.545012622884E+01  1.563552774358E+01  1.582315407650E+01  1.601303192542E+01
  1.620518830853E+01  1.639965056823E+01  1.659644637505E+01  1.679560373155E+01
  1.699715097633E+01  1.720111678804E+01  1.740753018950E+01  1.761642055177E+01
  1.782781759840E+01  1.804175140958E+01  1.825825242649E+01  1.847735145561E+01
  1.869907967308E+01  1.892346862915E+01  1.915055025270E+01  1.938035685574E+01
  1.961292113800E+01  1.984827619166E+01  2.008645550596E+01  2.032749297203E+01
  2.057142288770E+01  2.081827996235E+01  2.106809932190E+01  2.132091651376E+01
  2.157676751193E+01  2.183568872207E+01  2.209771698673E+01  2.236288959057E+01
  2.263124426566E+01  2.290281919685E+01  2.317765302721E+01  2.345578486354E+01
  2.373725428190E+01  2.402210133328E+01  2.431036654928E+01  2.460209094787E+01
  2.489731603925E+01  2.519608383172E+01  2.549843683770E+01  2.580441807975E+01
  2.611407109671E+01  2.642743994987E+01  2.674456922927E+01  2.706550406002E+01
  2.739029010874E+01  2.771897359004E+01  2.805160127312E+01  2.838822048840E+01
  2.872887913426E+01  2.907362568387E+01  2.942250919208E+01  2.977557930239E+01
  3.013288625401E+01  3.049448088906E+01  3.086041465973E+01  3.123073963565E+01
  3.160550851128E+01  3.198477461341E+01  3.236859190877E+01  3.275701501168E+01
  3.315009919182E+01  3.354790038212E+01  3.395047518670E+01  3.435788088895E+01
  3.477017545961E+01  3.518741756513E+01  3.560966657591E+01  3.603698257482E+01
  3.646942636572E+01  3.690705948211E+01  3.734994419589E+01  3.779814352624E+01
  3.825172124856E+01  3.871074190354E+01  3.917527080638E+01  3.964537405606E+01
  4.012111854473E+01  4.060257196727E+01  4.108980283088E+01  4.158288046485E+01
  4.208187503042E+01  4.258685753079E+01  4.309789982116E+01  4.361507461901E+01
  4.413845551444E+01
</grid-data>
</grid>
<valence-charge total-charge="17" is-unscreening-charge="yes"
 rescaled-to-z-pseudo="no">
<radfunc>
<data npts="457">
  1.242768731926E+01  1.243541946022E+01  1.245852889877E+01  1.249706842143E+01
  1.255062050398E+01  1.262098083187E+01  1.271056363204E+01  1.281301902533E+01
  1.294007782231E+01  1.307721633377E+01  1.323150217466E+01  1.339884793333E+01
  1.360060418368E+01  1.381074340355E+01  1.402007996868E+01  1.426047741655E+01
  1.453633733862E+01  1.479686763911E+01  1.508863990680E+01  1.541514446054E+01
  1.578019112582E+01  1.610274851383E+01  1.645488617060E+01  1.683900892491E+01
  1.725765002247E+01  1.771346192407E+01  1.820920206040E+01  1.860891721922E+01
  1.903391073679E+01  1.948541342885E+01  1.996465514542E+01  2.047285214011E+01
  2.101119195633E+01  2.158081549803E+01  2.218279592573E+01  2.281811399348E+01
  2.348762942143E+01  2.419204788305E+01  2.468131365274E+01  2.518642122466E+01
  2.570741418267E+01  2.624427673197E+01  2.679692636727E+01  2.736520598899E+01
  2.794887545621E+01  2.854760256953E+01  2.916095348440E+01  2.978838256313E+01
  3.042922168391E+01  3.108266903676E+01  3.174777745042E+01  3.242344231036E+01
  3.310838914716E+01  3.380116099617E+01  3.450010565435E+01  3.520336298823E+01
  3.590885247853E+01  3.661426122183E+01  3.731703264831E+01  3.801435625608E+01
  3.870315870762E+01  3.938009668091E+01  4.004155191708E+01  4.068362895618E+01
  4.130215610203E+01  4.189269020392E+01  4.245052588562E+01  4.271564310000E+01
  4.297070988700E+01  4.321507166012E+01  4.344806120837E+01  4.366899969230E+01
  4.387719775792E+01  4.407195677346E+01  4.425257019390E+01  4.441832505787E+01
  4.456850362108E+01  4.470238513003E+01  4.481924773928E+01  4.491837057479E+01
  4.499903594529E+01  4.506053170266E+01  4.510215375163E+01  4.512320870769E+01
  4.512301670142E+01  4.510091432575E+01  4.505625772169E+01  4.498842579622E+01
  4.489682356469E+01  4.478088560820E+01  4.464007963464E+01  4.447391013023E+01
  4.428192208616E+01  4.406370478304E+01  4.381889561354E+01  4.354718392150E+01
  4.324831483339E+01  4.292209305586E+01  4.256838661084E+01  4.218713047748E+01
  4.177833010808E+01  4.134206478326E+01  4.087849076989E+01  4.038784424345E+01
  3.987044393559E+01  3.932669346636E+01  3.875708331993E+01  3.816219242279E+01
  3.754268928310E+01  3.689933265131E+01  3.623297166283E+01  3.554454542628E+01
  3.483508202286E+01  3.410569688608E+01  3.335759053516E+01  3.259204564016E+01
  3.181042340256E+01  3.101415924126E+01  3.020475778119E+01  2.938378714926E+01
  2.855287259093E+01  2.771368942947E+01  2.686795539934E+01  2.601742239491E+01
  2.516386768548E+01  2.430908465745E+01  2.345487315436E+01  2.260302949481E+01
  2.175533625696E+01  2.091355192672E+01  2.007940051332E+01  1.925456124209E+01
  1.844065843853E+01  1.763925172030E+01  1.685182661490E+01  1.607978571936E+01
  1.532444051507E+01  1.458700394549E+01  1.386858385655E+01  1.317017738964E+01
  1.249266640497E+01  1.183681399904E+01  1.120326216377E+01  1.059253061783E+01
  1.000501682169E+01  9.440997168877E+00  8.900629325892E+00  8.383955674036E+00
  7.890907787085E+00  7.421311861324E+00  6.974894998205E+00  6.551292226109E+00
  6.150054136358E+00  5.770655000405E+00  5.412501230124E+00  5.074940041669E+00
  4.757268185190E+00  4.458740607531E+00  4.178578923672E+00  3.915979842079E+00
  3.670124135962E+00  3.440185484148E+00  3.225336429487E+00  3.024753742741E+00
  2.837622709620E+00  2.663141046364E+00  2.500523480430E+00  2.349005783425E+00
  2.207848374273E+00  2.076339455296E+00  1.953797696560E+00  1.839574486091E+00
  1.733055763982E+00  1.633663457267E+00  1.540856529957E+00  1.454131659479E+00
  1.373023547144E+00  1.297104866986E+00  1.225985854569E+00  1.159313535869E+00
  1.096770596254E+00  1.038073891309E+00  9.829714042394E-01  9.312342281894E-01
  8.826460265283E-01  8.370026650510E-01  7.941116972919E-01  7.537919259395E-01
  7.158729580282E-01  6.801947567949E-01  6.466071928193E-01  6.149695968017E-01
  5.851503160771E-01  5.570262767137E-01  5.304825528115E-01  5.054119443938E-01
  4.817145650782E-01  4.592974405244E-01  4.380741184816E-01  4.179642911044E-01
  3.988934300636E-01  3.807924348552E-01  3.635972945994E-01  3.472487635240E-01
  3.316920502388E-01  3.168765208321E-01  3.027554157496E-01  2.892855803570E-01
  2.764272090309E-01  2.641436025739E-01  2.524009387071E-01  2.411680553514E-01
  2.304162463770E-01  2.201190694694E-01  2.102521657331E-01  2.007930906361E-01
  1.917211558755E-01  1.830172817369E-01  1.746638595053E-01  1.666446234826E-01
  1.589445321612E-01  1.515496581055E-01  1.444470860943E-01  1.376248190833E-01
  1.310716915539E-01  1.247772898250E-01  1.187318789140E-01  1.129263355468E-01
  1.073520869304E-01  1.020010549147E-01  9.686560518772E-02  9.193850116186E-02
  8.721286222626E-02  8.268212605676E-02  7.834001469057E-02  7.418050408947E-02
  7.019779693140E-02  6.638629838591E-02  6.274059464410E-02  5.925543398847E-02
  5.592571020181E-02  5.274644812765E-02  4.971279120683E-02  4.681999082619E-02
  4.406339732582E-02  4.143845252061E-02  3.894068360013E-02  3.656569827729E-02
  3.430918107193E-02  3.216689059415E-02  3.013465773901E-02  2.820838467373E-02
  2.638404451831E-02  2.465768162199E-02  2.302541234163E-02  2.148342623261E-02
  2.002798756665E-02  1.865543709588E-02  1.736219398703E-02  1.614475785501E-02
  1.499971083044E-02  1.392371960193E-02  1.291353737948E-02  1.196600573225E-02
  1.107805625993E-02  1.024671206358E-02  9.469088988206E-03  8.742396615304E-03
  8.063938989925E-03  7.431115072018E-03  6.841418907345E-03  6.292439517898E-03
  5.781860516079E-03  5.307459450711E-03  4.867106896215E-03  4.458765299041E-03
  4.080487597689E-03  3.730415634395E-03  3.406778377857E-03  3.107889977177E-03
  2.832147667655E-03  2.578029549114E-03  2.344092257154E-03  2.128968547195E-03
  1.931364810325E-03  1.750058538973E-03  1.583895759224E-03  1.431788445288E-03
  1.292711930236E-03  1.165702325664E-03  1.049853961486E-03  9.443168556167E-04
  8.482942219050E-04  7.610400233513E-04  6.818565764239E-04  6.100922111500E-04
  5.451389906614E-04  4.864304929894E-04  4.334396571483E-04  3.856766949115E-04
  3.426870691648E-04  3.040495393058E-04  2.693742738374E-04  2.383010300597E-04
  2.104974005881E-04  1.856571262990E-04  1.634984752160E-04  1.437626867900E-04
  1.262124809760E-04  1.106306314719E-04  9.681860244401E-05  8.459524801468E-05
  7.379557373529E-05  6.426955919989E-05  5.588104087751E-05  4.850665415392E-05
  4.203483347638E-05  3.636486939207E-05  3.140602116333E-05  2.707668353484E-05
  2.330360612088E-05  2.002116377895E-05  1.717067624063E-05  1.469977518462E-05
  1.256181686146E-05  1.071533831695E-05  9.123555211366E-06  7.753899196113E-06
  6.577592787867E-06  5.569259672654E-06  4.706568378405E-06  3.969907273414E-06
  3.342088879136E-06  2.808081527688E-06  2.354766446242E-06  1.970718410891E-06
  1.646008180993E-06  1.372024992508E-06  1.141317502600E-06  9.474515483459E-07
  7.848833421630E-07  6.488469208188E-07  5.352538435603E-07  4.406044700465E-07
  3.619099260891E-07  2.966233595514E-07  2.425794855748E-07  1.979416120784E-07
  1.611553487789E-07  1.309082584544E-07  1.060947771107E-07  8.578579281796E-08
  6.920233205865E-08  5.569285744763E-08  4.471373169826E-08  3.581244978062E-08
  2.861328446938E-08  2.280503004801E-08  1.813056498606E-08  1.437798711794E-08
  1.137310441655E-08  8.973091072854E-09  7.061142465298E-09  5.541983934717E-09
  4.338107270777E-09  3.386625660989E-09  2.636652741667E-09  2.047124502374E-09
  1.584994302697E-09  1.223741323747E-09  9.421415472529E-10  7.232579721720E-10
  5.536133713573E-10  4.225145774886E-10  3.215021737498E-10  2.437234300984E-10
  1.843437199469E-10  1.390017212286E-10  1.044858002366E-10  7.829317648308E-11
  5.847956864295E-11  4.353934142830E-11  3.231027230167E-11  2.389812584280E-11
  1.761711150109E-11  1.294303543777E-11  9.476563371901E-12  6.914509565190E-12
  5.027475077080E-12  3.642491323605E-12  2.629595612983E-12  1.891484544506E-12
  1.355568059945E-12  9.678891623750E-13  6.884882333669E-13  4.878817747369E-13
  3.443976501249E-13  2.421661077728E-13  1.696109846347E-13  1.183209372885E-13
  8.220828042572E-14  5.688462897150E-14  3.919931734112E-14  2.689953844339E-14
  1.838112883096E-14  1.250657994460E-14  8.472697830468E-15  5.714774582583E-15
  3.837495753132E-15  2.565340593430E-15  1.707132000473E-15  1.130812118417E-15
  7.455746485009E-16  4.892658382732E-16  3.195414453575E-16  2.076888574884E-16
  1.343314660601E-16  8.645605491577E-17  5.536565099709E-17  3.527659465666E-17
  2.236185140570E-17  1.410187604651E-17  8.846410641747E-18  5.520153734323E-18
  3.426111469817E-18  2.114900876693E-18  1.298339872783E-18  7.926252730246E-19
  4.811710927262E-19  2.904382620706E-19  1.743014738580E-19  1.039946739583E-19
  6.168129100162E-20  3.636614502224E-20  2.131136561164E-20  1.241263088994E-20
  7.184935418687E-21  4.132908273328E-21  2.362272022840E-21  0.000000000000E+00
  0.000000000000E+00  0.000000000000E+00  0.000000000000E+00  0.000000000000E+00
  0.000000000000E+00  0.000000000000E+00  0.000000000000E+00  0.000000000000E+00
  0.000000000000E+00  0.000000000000E+00  0.000000000000E+00  0.000000000000E+00
  0.000000000000E+00  0.000000000000E+00  0.000000000000E+00  0.000000000000E+00
  0.000000000000E+00
</data>
</radfunc>
</valence-charge>
<pseudocore-charge matching-radius="0.401508927164"
 number-of-continuous-derivatives="4">
<annotation model-charge-form="Teter function with specified parameters" />
<radfunc>
<data npts="290">
  2.659731569652E+02  2.659322892879E+02  2.658101425570E+02  2.656064282082E+02
  2.653233373866E+02  2.649513540530E+02  2.644776791248E+02  2.639358485060E+02
  2.632637673025E+02  2.625381969228E+02  2.617216864049E+02  2.608357954078E+02
  2.597673689285E+02  2.586541046998E+02  2.575446306954E+02  2.562699520357E+02
  2.548064478252E+02  2.534234727097E+02  2.518737060690E+02  2.501382277193E+02
  2.481962917584E+02  2.464789325974E+02  2.446024658026E+02  2.425535581152E+02
  2.403180539151E+02  2.378809899502E+02  2.352266285840E+02  2.330833817335E+02
  2.308014803964E+02  2.283735685872E+02  2.257921493241E+02  2.230496260350E+02
  2.201383527347E+02  2.170506940212E+02  2.137790959846E+02  2.103161691472E+02
  2.066547845557E+02  2.027881841127E+02  2.000933249068E+02  1.973027585451E+02
  1.944149272103E+02  1.914284413353E+02  1.883421031309E+02  1.851549316342E+02
  1.818661892577E+02  1.784754097952E+02  1.749824278159E+02  1.713874093463E+02
  1.676908837065E+02  1.638937763270E+02  1.599974423301E+02  1.560037006097E+02
  1.519148680911E+02  1.477337937944E+02  1.434638922622E+02  1.391091758443E+02
  1.346742852658E+02  1.301645178283E+02  1.255858525240E+02  1.209449712656E+02
  1.162492753683E+02  1.115068963508E+02  1.067267000645E+02  1.019182831146E+02
  9.709196050318E+01  9.225874341064E+01  8.743030604537E+01  8.502169840639E+01
  8.261894053114E+01  8.022365596624E+01  7.783749887769E+01  7.546215147375E+01
  7.309932119749E+01  7.075073768603E+01  6.841814949419E+01  6.610332058164E+01
  6.380802656381E+01  6.153405072840E+01  5.928317982061E+01  5.705719960215E+01
  5.485789019070E+01  5.268702118828E+01  5.054634660937E+01  4.843759962130E+01
  4.636248711186E+01  4.432268410150E+01  4.231982801956E+01  4.035551286667E+01
  3.843128328782E+01  3.654862858313E+01  3.470897668587E+01  3.291368813979E+01
  3.116405011011E+01  2.946127046505E+01  2.780647196688E+01  2.620068661363E+01
  2.464485017432E+01  2.313979696238E+01  2.168625489320E+01  2.028484087279E+01
  1.893605656519E+01  1.764028458655E+01  1.639778517349E+01  1.520869337278E+01
  1.407301679791E+01  1.299063399651E+01  1.196129346966E+01  1.098461338155E+01
  1.006008199358E+01  9.187058852771E+00  8.364776758943E+00  7.592344529346E+00
  6.868750572520E+00  6.192867276081E+00  5.563456205052E+00  4.979174098895E+00
  4.438579646375E+00  3.940141007970E+00  3.482244045803E+00  3.063201211199E+00
  2.681261029965E+00  2.334618115731E+00  2.021423632078E+00  1.739796115132E+00
  1.487832559911E+00  1.263619666104E+00  1.065245132557E+00  8.908088844798E-01
  7.384341137070E-01  6.062780102621E-01  4.925420632694E-01  3.954818110150E-01
  3.134159238374E-01  2.447345095870E-01  1.879065396943E-01  1.414863044006E-01
  1.041188183885E-01  7.454411277651E-02  5.160036602148E-02  3.422584448099E-02
  2.145964289050E-02  1.244123546017E-02  6.408869252004E-03  2.696852490746E-03
  7.318109732795E-04  2.800522691138E-05  1.818189712600E-04  8.655452078986E-04
  1.820609368116E-03  2.850378906732E-03  3.812715119296E-03  4.612425448107E-03
  5.193772903170E-03  5.533193356521E-03  5.632361411629E-03  5.511731493916E-03
  5.204663100630E-03  4.752218289753E-03  4.198696127208E-03  3.587943728389E-03
  2.960457610228E-03  2.351263274569E-03  1.788536270092E-03  1.292905417682E-03
  8.773593661990E-04  5.476619988595E-04  3.031711069090E-04  1.379486592264E-04
  4.205015986144E-05  2.884972810788E-06  6.548801300325E-06  3.904316114687E-05
  8.731385575252E-05  1.400601014589E-04  1.882868658808E-04  2.255938807521E-04
  2.482143819332E-04  2.548337028985E-04  2.462313660047E-04  2.247994924676E-04
  1.939947208058E-04  1.577802826632E-04  1.201097150368E-04  8.449453874971E-05
  5.368607704696E-05  2.948764278602E-05  1.269894536304E-05  3.181133473828E-06
  1.965669061010E-08  1.754116546520E-06  6.640157351280E-06  1.290846641163E-05
  1.898990600830E-05  2.368304202886E-05  2.624985623053E-05  2.643596986853E-05
  2.442190655764E-05  2.072049440678E-05  1.604140391834E-05  1.114637239634E-05
  6.717686708521E-06  3.258298875645E-06  1.035310722651E-06  7.061153057731E-08
  0.000000000000E+00  0.000000000000E+00  0.000000000000E+00  0.000000000000E+00
  0.000000000000E+00  0.000000000000E+00  0.000000000000E+00  0.000000000000E+00
  0.000000000000E+00  0.000000000000E+00  0.000000000000E+00  0.000000000000E+00
  0.000000000000E+00  0.000000000000E+00  0.000000000000E+00  0.000000000000E+00
  0.000000000000E+00  0.000000000000E+00  0.000000000000E+00  0.000000000000E+00
  0.000000000000E+00  0.000000000000E+00  0.000000000000E+00  0.000000000000E+00
  0.000000000000E+00  0.000000000000E+00  0.000000000000E+00  0.000000000000E+00
  0.000000000000E+00  0.000000000000E+00  0.000000000000E+00  0.000000000000E+00
  0.000000000000E+00  0.000000000000E+00  0.000000000000E+00  0.000000000000E+00
  0.000000000000E+00  0.000000000000E+00  0.000000000000E+00  0.000000000000E+00
  0.000000000000E+00  0.000000000000E+00  0.000000000000E+00  0.000000000000E+00
  0.000000000000E+00  0.000000000000E+00  0.000000000000E+00  0.000000000000E+00
  0.000000000000E+00  0.000000000000E+00  0.000000000000E+00  0.000000000000E+00
  0.000000000000E+00  0.000000000000E+00  0.000000000000E+00  0.000000000000E+00
  0.000000000000E+00  0.000000000000E+00  0.000000000000E+00  0.000000000000E+00
  0.000000000000E+00  0.000000000000E+00  0.000000000000E+00  0.000000000000E+00
  0.000000000000E+00  0.000000000000E+00  0.000000000000E+00  0.000000000000E+00
  0.000000000000E+00  0.000000000000E+00  0.000000000000E+00  0.000000000000E+00
  0.000000000000E+00  0.000000000000E+00  0.000000000000E+00  0.000000000000E+00
  0.000000000000E+00  0.000000000000E+00  0.000000000000E+00  0.000000000000E+00
  0.000000000000E+00  0.000000000000E+00  0.000000000000E+00  0.000000000000E+00
  0.000000000000E+00  0.000000000000E+00
</data>
</radfunc>
</pseudocore-charge>
<semilocal-potentials set="scalar_relativistic">
<slps n="3" l="s" rc="1.26189844796" eref="-3.76330284905">
<radfunc>
<data npts="290">
 -2.169650081260E+01 -2.169705552008E+01 -2.169871329919E+01 -2.170147767465E+01
 -2.170531826406E+01 -2.171036320703E+01 -2.171678465186E+01 -2.172412638103E+01
 -2.173322750910E+01 -2.174304612768E+01 -2.175408682538E+01 -2.176605536797E+01
 -2.178047562448E+01 -2.179548418808E+01 -2.181042438712E+01 -2.182756775530E+01
 -2.184722204807E+01 -2.186576643062E+01 -2.188651409807E+01 -2.190970577108E+01
 -2.193560271952E+01 -2.195845683587E+01 -2.198337602894E+01 -2.201052183832E+01
 -2.204006301885E+01 -2.207217455418E+01 -2.210703626659E+01 -2.213509726234E+01
 -2.216488545962E+01 -2.219647772144E+01 -2.222994947394E+01 -2.226537366863E+01
 -2.230281956049E+01 -2.234235127927E+01 -2.238402616960E+01 -2.242789287413E+01
 -2.247398913244E+01 -2.252233926757E+01 -2.255582958533E+01 -2.259032332121E+01
 -2.262581388005E+01 -2.266228985105E+01 -2.269973446539E+01 -2.273812501449E+01
 -2.277743222756E+01 -2.281761960747E+01 -2.285864272401E+01 -2.290044846433E+01
 -2.294297424003E+01 -2.298614715148E+01 -2.302988310988E+01 -2.307408591849E+01
 -2.311864631480E+01 -2.316344097633E+01 -2.320833149352E+01 -2.325316331388E+01
 -2.329776466286E+01 -2.334194544782E+01 -2.338549615270E+01 -2.342818673237E+01
 -2.346976551724E+01 -2.350995813985E+01 -2.354846649748E+01 -2.358496776606E+01
 -2.361911348295E+01 -2.365052871807E+01 -2.367881135518E+01 -2.369164470734E+01
 -2.370353150700E+01 -2.371441360925E+01 -2.372423109050E+01 -2.373292224598E+01
 -2.374042359095E+01 -2.374666986578E+01 -2.375159404537E+01 -2.375512735292E+01
 -2.375719927858E+01 -2.375773760308E+01 -2.375666842682E+01 -2.375391620451E+01
 -2.374940378588E+01 -2.374305246262E+01 -2.373478202190E+01 -2.372451080679E+01
 -2.371215578390E+01 -2.369763261844E+01 -2.368085575714E+01 -2.366173851917E+01
 -2.364019319541E+01 -2.361613115631E+01 -2.358946296849E+01 -2.356009852042E+01
 -2.352794715723E+01 -2.349291782494E+01 -2.345491922404E+01 -2.341385997270E+01
 -2.336964877955E+01 -2.332219462602E+01 -2.327140695829E+01 -2.321719588868E+01
 -2.315947240641E+01 -2.309814859757E+01 -2.303313787411E+01 -2.296435521154E+01
 -2.289171739526E+01 -2.281514327499E+01 -2.273455402731E+01 -2.264987342574E+01
 -2.256102811836E+01 -2.246794791252E+01 -2.237056606658E+01 -2.226881958860E+01
 -2.216264954181E+01 -2.205200135724E+01 -2.193682515346E+01 -2.181707606416E+01
 -2.169271457413E+01 -2.156370686462E+01 -2.143002516929E+01 -2.129164814266E+01
 -2.114856124282E+01 -2.100075713141E+01 -2.084823609389E+01 -2.069100648427E+01
 -2.052908519901E+01 -2.036249818599E+01 -2.019128099538E+01 -2.001547938063E+01
 -1.983514995903E+01 -1.965036094309E+01 -1.946119295540E+01 -1.926773994179E+01
 -1.907011019952E+01 -1.886842753914E+01 -1.866283260131E+01 -1.845348435157E+01
 -1.824056177849E+01 -1.802426582248E+01 -1.780482156383E+01 -1.758248069980E+01
 -1.735752433988E+01 -1.713026614762E+01 -1.690105585329E+01 -1.667028315640E+01
 -1.643838202812E+01 -1.620583541069E+01 -1.597318029456E+01 -1.574101313142E+01
 -1.550999551492E+01 -1.528086002826E+01 -1.505441612162E+01 -1.483155584203E+01
 -1.461325919694E+01 -1.440059889202E+01 -1.419474414774E+01 -1.399696327065E+01