<?xml version="1.0" encoding="UTF-8" ?>
<psml version="1.1" energy_unit="hartree" length_unit="bohr"
 uuid="ad9a74b0-be63-11e7-5f02-56e9f7ee86d7"
 xmlns="http://esl.cecam.org/PSML/ns/1.1">
<provenance creator="ONCVPSP-3.3.0+psml-3.3.0-73 (scalar-relativistic)"
 date="2017-10-31">
<annotation action="semilocal-pseudopotential-generation"
 action-cont="projectors-generation" />
<input-file name="oncvpsp-input">
<![CDATA[# atsym z nc nv iexc psfile
Zr 40 6 4 4 upf
# n l f
1 0 2.0
2 0 2.0
2 1 6.0
3 0 2.0
3 1 6.0
3 2 10.0
4 0 2.0
4 1 6.0
4 2 2.0
5 0 2.0
# lmax
2
# l rc ep ncon nbas qcut
0 1.55 0.0 4 8 7.4
1 1.55 0.0 4 8 8.0
2 1.5 0.0 4 8 7.8
# lloc lpopt rc5 dvloc0
4 5 1.45 0.0
# l nproj debl
0 2 1.0
1 2 2.0
2 2 2.0
# icmod fcfact
3 5 1.35
# epsh1 epsh2 depsh
-12.0 12.0 0.02
# rlmax drl
6.0 0.01
 0
]]>
</input-file>
</provenance>
<pseudo-atom-spec atomic-label="Zr" atomic-number="40" z-pseudo="12"
 flavor="Hamann&apos;s oncvpsp" relativity="scalar" spin-dft="no"
 core-corrections="yes">
<annotation pseudo-energy="-47.1025717005" />
<exchange-correlation>
<annotation oncvpsp-xc-code="4" oncvpsp-xc-type="GGA -- Perdew-Burke-Ernzerhof" />
<libxc-info number-of-functionals="2">
<functional name="Perdew, Burke &amp; Ernzerhof (GGA)" type="exchange" id="101" />
<functional name="Perdew, Burke &amp; Ernzerhof (GGA)" type="correlation"
 id="130" />
</libxc-info>
</exchange-correlation>
<valence-configuration total-valence-charge="12">
<shell n="4" l="s" occupation="2" />
<shell n="4" l="p" occupation="6" />
<shell n="4" l="d" occupation="2" />
<shell n="5" l="s" occupation="2" />
</valence-configuration>
</pseudo-atom-spec>
<grid npts="457">
<annotation type="sampled from oncvpsp log grid"
 recipe="r(i:1..N) = r1*exp(a*(i-1)) + r=0; resampled"
 recipe-cont="r1: scale; a: step" scale="0.125000000000E-04"
 step="0.119285708653E-01" delta="0.500000000000E-02" rmax="44.1649575951" />
<grid-data>
  0.000000000000E+00  5.043218706865E-03  1.007343358937E-02  1.511175669823E-02
  2.012089306008E-02  2.523928167219E-02  3.054676265355E-02  3.567071815465E-02
  4.067218371481E-02  4.582501498060E-02  5.101844624570E-02  5.612693518305E-02
  6.174693831073E-02  6.712418346252E-02  7.296970714298E-02  7.838368526344E-02
  8.419935280047E-02  8.937402475208E-02  9.486671850454E-02  1.006969788457E-01
  1.068855517351E-01  1.121091483444E-01  1.175880269923E-01  1.233346635500E-01
  1.293621435963E-01  1.356841922146E-01  1.423152052457E-01  1.475002787239E-01
  1.528742637588E-01  1.584440431028E-01  1.642167502724E-01  1.701997786849E-01
  1.764007911272E-01  1.828277295701E-01  1.894888253401E-01  1.963926096616E-01
  2.035479245832E-01  2.109639343024E-01  2.160574475322E-01  2.212739385454E-01
  2.266163765177E-01  2.320878023123E-01  2.376913302113E-01  2.434301496880E-01
  2.493075272220E-01  2.553268081593E-01  2.614914186155E-01  2.678048674265E-01
  2.742707481457E-01  2.808927410889E-01  2.876746154297E-01  2.946202313447E-01
  3.017335422103E-01  3.090185968534E-01  3.164795418558E-01  3.241206239144E-01
  3.319461922582E-01  3.399607011241E-01  3.481687122920E-01  3.565748976816E-01
  3.651840420112E-01  3.740010455215E-01  3.830309267646E-01  3.922788254604E-01
  4.017500054223E-01  4.114498575532E-01  4.213839029140E-01  4.264405097490E-01
  4.315577958659E-01  4.367364894163E-01  4.419773272893E-01  4.472810552168E-01
  4.526484278794E-01  4.580802090140E-01  4.635771715221E-01  4.691400975804E-01
  4.747697787514E-01  4.804670160964E-01  4.862326202895E-01  4.920674117330E-01
  4.979722206738E-01  5.039478873219E-01  5.099952619697E-01  5.161152051134E-01
  5.223085875747E-01  5.285762906256E-01  5.349192061131E-01  5.413382365865E-01
  5.478342954255E-01  5.544083069706E-01  5.610612066543E-01  5.677939411341E-01
  5.746074684278E-01  5.815027580489E-01  5.884807911455E-01  5.955425606392E-01
  6.026890713669E-01  6.099213402233E-01  6.172403963060E-01  6.246472810616E-01
  6.321430484344E-01  6.397287650156E-01  6.474055101958E-01  6.551743763181E-01
  6.630364688340E-01  6.709929064600E-01  6.790448213375E-01  6.871933591935E-01
  6.954396795039E-01  7.037849556579E-01  7.122303751258E-01  7.207771396273E-01
  7.294264653028E-01  7.381795828865E-01  7.470377378811E-01  7.560021907357E-01
  7.650742170245E-01  7.742551076288E-01  7.835461689203E-01  7.929487229474E-01
  8.024641076228E-01  8.120936769142E-01  8.218388010372E-01  8.317008666496E-01
  8.416812770494E-01  8.517814523740E-01  8.620028298025E-01  8.723468637602E-01
  8.828150261253E-01  8.934088064388E-01  9.041297121160E-01  9.149792686614E-01
  9.259590198854E-01  9.370705281240E-01  9.483153744615E-01  9.596951589550E-01
  9.712115008625E-01  9.828660388728E-01  9.946604313393E-01  1.006596356515E+00
  1.018675512794E+00  1.030899618947E+00  1.043270414374E+00  1.055789659347E+00
  1.068459135259E+00  1.081280644882E+00  1.094256012621E+00  1.107387084772E+00
  1.120675729790E+00  1.134123838547E+00  1.147733324610E+00  1.161506124505E+00
  1.175444197999E+00  1.189549528375E+00  1.203824122715E+00  1.218270012188E+00
  1.232889252334E+00  1.247683923362E+00  1.262656130443E+00  1.277808004008E+00
  1.293141700056E+00  1.308659400457E+00  1.324363313262E+00  1.340255673021E+00
  1.356338741098E+00  1.372614805991E+00  1.389086183663E+00  1.405755217867E+00
  1.422624280481E+00  1.439695771847E+00  1.456972121109E+00  1.474455786562E+00
  1.492149256001E+00  1.510055047073E+00  1.528175707638E+00  1.546513816130E+00
  1.565071981923E+00  1.583852845706E+00  1.602859079855E+00  1.622093388813E+00
  1.641558509479E+00  1.661257211592E+00  1.681192298131E+00  1.701366605709E+00
  1.721783004978E+00  1.742444401037E+00  1.763353733850E+00  1.784513978656E+00
  1.805928146400E+00  1.827599284157E+00  1.849530475566E+00  1.871724841273E+00
  1.894185539369E+00  1.916915765841E+00  1.939918755031E+00  1.963197780091E+00
  1.986756153453E+00  2.010597227294E+00  2.034724394022E+00  2.059141086750E+00
  2.083850779791E+00  2.108856989148E+00  2.134163273018E+00  2.159773232294E+00
  2.185690511082E+00  2.211918797215E+00  2.238461822781E+00  2.265323364655E+00
  2.292507245031E+00  2.320017331971E+00  2.347857539955E+00  2.376031830434E+00
  2.404544212399E+00  2.433398742948E+00  2.462599527863E+00  2.492150722198E+00
  2.522056530864E+00  2.552321209235E+00  2.582949063745E+00  2.613944452510E+00
  2.645311785940E+00  2.677055527372E+00  2.709180193700E+00  2.741690356025E+00
  2.774590640297E+00  2.807885727980E+00  2.841580356716E+00  2.875679320997E+00
  2.910187472849E+00  2.945109722523E+00  2.980451039193E+00  3.016216451664E+00
  3.052411049083E+00  3.089039981672E+00  3.126108461453E+00  3.163621762990E+00
  3.201585224146E+00  3.240004246836E+00  3.278884297798E+00  3.318230909371E+00
  3.358049680284E+00  3.398346276447E+00  3.439126431764E+00  3.480395948946E+00
  3.522160700333E+00  3.564426628737E+00  3.607199748282E+00  3.650486145261E+00
  3.694291979004E+00  3.738623482752E+00  3.783486964545E+00  3.828888808120E+00
  3.874835473817E+00  3.921333499503E+00  3.968389501497E+00  4.016010175515E+00
  4.064202297621E+00  4.112972725193E+00  4.162328397895E+00  4.212276338670E+00
  4.262823654734E+00  4.313977538591E+00  4.365745269054E+00  4.418134212282E+00
  4.471151822830E+00  4.524805644704E+00  4.579103312440E+00  4.634052552190E+00
  4.689661182816E+00  4.745937117010E+00  4.802888362414E+00  4.860523022763E+00
  4.918849299036E+00  4.977875490624E+00  5.037609996512E+00  5.098061316470E+00
  5.159238052268E+00  5.221148908895E+00  5.283802695802E+00  5.347208328151E+00
  5.411374828089E+00  5.476311326026E+00  5.542027061938E+00  5.608531386682E+00
  5.675833763322E+00  5.743943768482E+00  5.812871093703E+00  5.882625546828E+00
  5.953217053390E+00  6.024655658030E+00  6.096951525927E+00  6.170114944238E+00
  6.244156323569E+00  6.319086199452E+00  6.394915233845E+00  6.471654216651E+00
  6.549314067251E+00  6.627905836058E+00  6.707440706091E+00  6.787929994564E+00
  6.869385154499E+00  6.951817776353E+00  7.035239589669E+00  7.119662464745E+00
  7.205098414322E+00  7.291559595294E+00  7.379058310437E+00  7.467607010162E+00
  7.557218294284E+00  7.647904913816E+00  7.739679772782E+00  7.832555930055E+00
  7.926546601216E+00  8.021665160430E+00  8.117925142355E+00  8.215340244064E+00
  8.313924326992E+00  8.413691418916E+00  8.514655715943E+00  8.616831584535E+00
  8.720233563549E+00  8.824876366312E+00  8.930774882707E+00  9.037944181300E+00
  9.146399511475E+00  9.256156305613E+00  9.367230181280E+00  9.479636943456E+00
  9.593392586777E+00  9.708513297819E+00  9.825015457392E+00  9.942915642881E+00
  1.006223063060E+01  1.018297739816E+01  1.030517312694E+01  1.042883520446E+01
  1.055398122692E+01  1.068062900164E+01  1.080879654966E+01  1.093850210826E+01
  1.106976413356E+01  1.120260130316E+01  1.133703251880E+01  1.147307690902E+01
  1.161075383193E+01  1.175008287791E+01  1.189108387245E+01  1.203377687892E+01
  1.217818220146E+01  1.232432038788E+01  1.247221223254E+01  1.262187877933E+01
  1.277334132468E+01  1.292662142057E+01  1.308174087762E+01  1.323872176815E+01
  1.339758642937E+01  1.355835746652E+01  1.372105775612E+01  1.388571044920E+01
  1.405233897459E+01  1.422096704228E+01  1.439161864679E+01  1.456431807055E+01
  1.473908988740E+01  1.491595896604E+01  1.509495047364E+01  1.527608987932E+01
  1.545940295787E+01  1.564491579337E+01  1.583265478289E+01  1.602264664028E+01
  1.621491839997E+01  1.640949742077E+01  1.660641138981E+01  1.680568832649E+01
  1.700735658641E+01  1.721144486545E+01  1.741798220383E+01  1.762699799028E+01
  1.783852196616E+01  1.805258422976E+01  1.826921524051E+01  1.848844582340E+01
  1.871030717328E+01  1.893483085936E+01  1.916204882967E+01  1.939199341563E+01
  1.962469733662E+01  1.986019370465E+01  2.009851602911E+01  2.033969822146E+01
  2.058377460012E+01  2.083077989532E+01  2.108074925406E+01  2.133371824511E+01
  2.158972286405E+01  2.184879953842E+01  2.211098513288E+01  2.237631695448E+01
  2.264483275793E+01  2.291657075103E+01  2.319156960004E+01  2.346986843524E+01
  2.375150685646E+01  2.403652493874E+01  2.432496323800E+01  2.461686279686E+01
  2.491226515042E+01  2.521121233223E+01  2.551374688021E+01  2.581991184278E+01
  2.612975078489E+01  2.644330779431E+01  2.676062748784E+01  2.708175501769E+01
  2.740673607791E+01  2.773561691084E+01  2.806844431377E+01  2.840526564554E+01
  2.874612883328E+01  2.909108237928E+01  2.944017536783E+01  2.979345747225E+01
  3.015097896191E+01  3.051279070946E+01  3.087894419797E+01  3.124949152835E+01
  3.162448542669E+01  3.200397925181E+01  3.238802700283E+01  3.277668332686E+01
  3.317000352679E+01  3.356804356911E+01  3.397086009194E+01  3.437851041304E+01
  3.479105253800E+01  3.520854516845E+01  3.563104771047E+01  3.605862028300E+01
  3.649132372639E+01  3.692921961111E+01  3.737237024644E+01  3.782083868940E+01
  3.827468875368E+01  3.873398501872E+01  3.919879283894E+01  3.966917835301E+01
  4.014520849325E+01  4.062695099517E+01  4.111447440711E+01  4.160784809999E+01
  4.210714227719E+01  4.261242798452E+01  4.312377712033E+01  4.364126244578E+01
  4.416495759513E+01
</grid-data>
</grid>
<valence-charge total-charge="12" is-unscreening-charge="yes"
 rescaled-to-z-pseudo="no">
<radfunc>
<data npts="457">
  7.717281733595E-02  7.745603666224E-02  7.830302110152E-02  7.971723950370E-02
  8.168589355807E-02  8.427872586272E-02  8.759027605982E-02  9.139195079748E-02
  9.567885179132E-02  1.006945381693E-01  1.063693545938E-01  1.125630725736E-01
  1.200841045511E-01  1.279806134203E-01  1.373502944475E-01  1.467665827642E-01
  1.576824000180E-01  1.681012829368E-01  1.798975968750E-01  1.932606651955E-01
  2.084075070252E-01  2.219754908112E-01  2.369882299494E-01  2.536073071405E-01
  2.720136509720E-01  2.924100130772E-01  3.150237669669E-01  3.335915931274E-01
  3.536686106496E-01  3.753846784479E-01  3.988814969374E-01  4.243137019637E-01
  4.518500453931E-01  4.816746637054E-01  5.139884340461E-01  5.490104146480E-01
  5.869793631645E-01  6.281553220795E-01  6.575263754016E-01  6.885378648395E-01
  7.212847084861E-01  7.558671166683E-01  7.923908029830E-01  8.309671862555E-01
  8.717135793360E-01  9.147533599353E-01  9.602161178915E-01  1.008237772355E+00
  1.058960651373E+00  1.112533525235E+00  1.169111583718E+00  1.228856346009E+00
  1.291935490649E+00  1.358522591227E+00  1.428796741929E+00  1.502942055205E+00
  1.581147012048E+00  1.663603643405E+00  1.750506519407E+00  1.842051521182E+00
  1.938434368267E+00  2.039848873055E+00  2.146484892344E+00  2.258525945173E+00
  2.376146465659E+00  2.499508659867E+00  2.628758936853E+00  2.695632559541E+00
  2.764023886287E+00  2.833944905812E+00  2.905405778610E+00  2.978414668946E+00
  3.052977568858E+00  3.129098114138E+00  3.206777392339E+00  3.286013742912E+00
  3.366802549604E+00  3.449136025348E+00  3.533002989910E+00  3.618388640666E+00
  3.705274316930E+00  3.793637258373E+00  3.883450358148E+00  3.974681911449E+00
  4.067295360337E+00  4.161249035789E+00  4.256495898033E+00  4.352983276389E+00
  4.450652609941E+00  4.549439190536E+00  4.649271909726E+00  4.750073011440E+00
  4.851757852326E+00  4.954234671835E+00  5.057404374323E+00  5.161160325544E+00
  5.265388166132E+00  5.369965644745E+00  5.474762473762E+00  5.579640210503E+00
  5.684452167095E+00  5.789043352220E+00  5.893250448065E+00  5.996901825863E+00
  6.099817603501E+00  6.201809748633E+00  6.302682230812E+00  6.402231226035E+00
  6.500245377082E+00  6.596506112877E+00  6.690788029947E+00  6.782859338861E+00
  6.872482378241E+00  6.959414198649E+00  7.043407218269E+00  7.124209951892E+00
  7.201567814198E+00  7.275223997803E+00  7.344920425937E+00  7.410398778915E+00
  7.471401592893E+00  7.527673428568E+00  7.578962106702E+00  7.625020006428E+00
  7.665605421426E+00  7.700483968072E+00  7.729430038715E+00  7.752228292249E+00
  7.768675173143E+00  7.778580449137E+00  7.781768756814E+00  7.778081143369E+00
  7.767376591979E+00  7.749533517382E+00  7.724451217531E+00  7.692051266508E+00
  7.652278833385E+00  7.605103911264E+00  7.550522440448E+00  7.488557309582E+00
  7.419259218618E+00  7.342707387684E+00  7.259010096338E+00  7.168305038316E+00
  7.070759477699E+00  6.966570193511E+00  6.855963201034E+00  6.739193239708E+00
  6.616543019273E+00  6.488322217903E+00  6.354866228407E+00  6.216534651198E+00
  6.073709535601E+00  5.926793374224E+00  5.776206858470E+00  5.622386406906E+00
  5.465781481950E+00  5.306851714333E+00  5.146063858731E+00  4.983888608056E+00
  4.820797297815E+00  4.657258535700E+00  4.493734795057E+00  4.330679013919E+00
  4.168531243730E+00  4.007715393692E+00  3.848636117575E+00  3.691675889840E+00
  3.537192316881E+00  3.385515727065E+00  3.236947079998E+00  3.091756231174E+00
  2.950180582901E+00  2.812424146388E+00  2.678656952700E+00  2.549014566941E+00
  2.423597886487E+00  2.302474848130E+00  2.185686287679E+00  2.073253661621E+00
  1.965181089586E+00  1.861455627651E+00  1.762048891659E+00  1.666918197902E+00
  1.576007779806E+00  1.489249986670E+00  1.406566464304E+00  1.327869312646E+00
  1.253062213069E+00  1.182041520914E+00  1.114697318534E+00  1.050914424881E+00
  9.905733582611E-01  9.335512494611E-01  8.797227029870E-01  8.289606047193E-01
  7.811368747804E-01  7.361231649014E-01  6.937915000372E-01  6.540148644045E-01
  6.166677325196E-01  5.816265461807E-01  5.487701386765E-01  5.179801078089E-01
  4.891411395931E-01  4.621412847391E-01  4.368721902326E-01  4.132292885139E-01
  3.911119469023E-01  3.704235800322E-01  3.510717281488E-01  3.329681041616E-01
  3.160286123602E-01  3.001733416674E-01  2.853265362314E-01  2.714165460493E-01
  2.583757601959E-01  2.461405248099E-01  2.346510483913E-01  2.238512959605E-01
  2.136888739724E-01  2.041149074759E-01  1.950839108550E-01  1.865536533418E-01
  1.784850203796E-01  1.708418718273E-01  1.635908979410E-01  1.567014740268E-01
  1.501455146316E-01  1.438973281054E-01  1.379334723393E-01  1.322326124375E-01
  1.267753810281E-01  1.215442418572E-01  1.165233572312E-01  1.116984598025E-01
  1.070567291060E-01  1.025866731775E-01  9.827801550639E-02  9.412158750211E-02
  9.010922658733E-02  8.623367997204E-02  8.248851410887E-02  7.886802978538E-02
  7.536718276967E-02  7.198150989334E-02  6.870706042855E-02  6.554033259429E-02
  6.247821500925E-02  5.951793289576E-02  5.665699882922E-02  5.389316782146E-02
  5.122439652264E-02  4.864880632589E-02  4.616465016062E-02  4.377028276391E-02
  4.146413422581E-02  3.924468661115E-02  3.711045346931E-02  3.505996205280E-02
  3.309173807504E-02  3.120429284741E-02  2.939611264463E-02  2.766565015527E-02
  2.601131788085E-02  2.443148335156E-02  2.292446602966E-02  2.148853577266E-02
  2.012191272805E-02  1.882276853105E-02  1.758922866681E-02  1.641937586808E-02
  1.531125441019E-02  1.426287516055E-02  1.327222124430E-02  1.233725418733E-02
  1.145592040161E-02  1.062615788265E-02  9.845902996114E-03  9.113097239673E-03
  8.425693876348E-03  7.781664347385E-03  7.179004384889E-03  6.615739757357E-03
  6.089931594028E-03  5.599681246619E-03  5.143134659016E-03  4.718486226777E-03
  4.323982138613E-03  3.957923201218E-03  3.618667156936E-03  3.304630510589E-03
  3.014289887570E-03  2.746182949818E-03  2.498908899869E-03  2.271128605608E-03
  2.061564379995E-03  1.868999450805E-03  1.692277155468E-03  1.530299895548E-03
  1.382027884338E-03  1.246477719485E-03  1.122720810755E-03  1.009881690875E-03
  9.071362351168E-04  8.137098128500E-04  7.288753918346E-04  6.519516135675E-04
  5.823008556207E-04  5.193272946388E-04  4.624749815436E-04  4.112259385599E-04
  3.650982859345E-04  3.236444046943E-04  2.864491404714E-04  2.531280523131E-04
  2.233257094788E-04  1.967140384889E-04  1.729907221040E-04  1.518776514668E-04
  1.331194322942E-04  1.164819457508E-04  1.017509644407E-04  8.873082380337E-05
  7.724314907452E-05  6.712563786112E-05  5.823089827059E-05  5.042534242156E-05
  4.358813504152E-05  3.761019672460E-05  3.239326128063E-05  2.784898645580E-05
  2.389811714859E-05  2.046970008589E-05  1.750034876676E-05  1.493355732896E-05
  1.271906184974E-05  1.081224746076E-05  9.173599539426E-06  7.768197138450E-06
  6.565246732156E-06  5.537654294235E-06  4.661633676444E-06  3.916349231567E-06
  3.283590615969E-06  2.747477716262E-06  2.294193669664E-06  1.911743987064E-06
  1.589739839978E-06  1.319203635652E-06  1.092395076866E-06  9.026559827210E-07
  7.442722321059E-07  6.123512811839E-07  5.027137984266E-07  4.117980542885E-07
  3.365757962192E-07  2.744784323507E-07  2.233324379392E-07  1.813029867266E-07
  1.468448941745E-07  1.186600405349E-07  9.566051856470E-08  7.693682311745E-08
  6.173046767504E-08  4.941047605371E-08  3.945325601310E-08  3.142541538762E-08
  2.496913075355E-08  1.978972370117E-08  1.564514068946E-08  1.233706943443E-08
  9.703458055630E-09  7.612233020087E-09  5.956038528866E-09  4.647843637509E-09
  3.617284333415E-09  2.807626250602E-09  2.173249915017E-09  1.677574601006E-09
  1.291349248380E-09  9.912496330632E-10  7.587302821198E-10  5.790876414246E-10
  4.406978928392E-10  3.343987153040E-10  2.529893153576E-10  1.908273293681E-10
  1.435048224568E-10  1.075886669265E-10  8.041315496866E-11  5.991485609215E-11
  4.450153011289E-11  3.294840491298E-11  2.431637077916E-11  1.788766997208E-11
  1.311550570591E-11  9.584688463571E-12  6.981004744114E-12  5.067455358937E-12
  3.665885396568E-12  2.642831242247E-12  1.898654394682E-12  1.359227985968E-12
  9.695988076956E-13  6.891726252855E-13  4.880701153561E-13  3.443775948126E-13
  1.648738355654E-13  1.144139473817E-13  7.907238709524E-14  5.442120426375E-14
  3.729815605210E-14  2.545427428274E-14  1.729681648397E-14  1.170257457752E-14
  7.882860535489E-15  5.286285059286E-15  3.529055309271E-15  2.345222530972E-15
  1.551327974790E-15  1.021393614731E-15  6.693114905871E-16  4.365001854669E-16
  2.832935406461E-16  1.829615254533E-16  1.175785755352E-16  7.518238219683E-17
  4.782965541760E-17  3.027228629459E-17  1.906044477420E-17  1.193805676163E-17
  7.437377459833E-18  4.608545344730E-18  2.840126201684E-18  1.740654906255E-18
  1.060865136181E-18  6.429111814599E-19  3.873963971117E-19  2.320834166871E-19
  1.382249216187E-19  8.183738019891E-20  4.816252521415E-20  2.817264441242E-20
  1.637853672751E-20  9.462798802395E-21  5.432861622020E-21  3.099340669735E-21
  1.756743315832E-21  9.892632549826E-22  5.534084692758E-22  3.075213369724E-22
  1.697327074438E-22  0.000000000000E+00  0.000000000000E+00  0.000000000000E+00
  0.000000000000E+00
</data>
</radfunc>
</valence-charge>
<pseudocore-charge matching-radius="0.831700866650"
 number-of-continuous-derivatives="4">
<annotation model-charge-form="Teter function with specified parameters" />
<radfunc>
<data npts="290">
  3.977646488328E+01  3.977392951201E+01  3.976635043346E+01  3.975370592130E+01
  3.973612569850E+01  3.971300952657E+01  3.968354817141E+01  3.964981222785E+01
  3.961187957333E+01  3.956764382042E+01  3.951778218166E+01  3.946358554818E+01
  3.939808518726E+01  3.932967608525E+01  3.924897672773E+01  3.916838313305E+01
  3.907557918970E+01  3.898761275518E+01  3.888872385651E+01  3.877758793298E+01
  3.865272830059E+01  3.854186080367E+01  3.842023609696E+01  3.828684823437E+01
  3.814060513182E+01  3.798032288595E+01  3.780472010275E+01  3.766213511338E+01
  3.750953198028E+01  3.734625142430E+01  3.717159763779E+01  3.698483735377E+01
  3.678519909072E+01  3.657187261669E+01  3.634400868349E+01  3.610071908852E+01
  3.584107713002E+01  3.556411852969E+01  3.536936651736E+01  3.516616939778E+01
  3.495421589309E+01  3.473318878710E+01  3.450276543448E+01  3.426261835660E+01
  3.401241593156E+01  3.375182318677E+01  3.348050270265E+01  3.319811563648E+01
  3.290432287559E+01  3.259878632953E+01  3.228117037089E+01  3.195114343466E+01
  3.160837978605E+01  3.125256146636E+01  3.088338042654E+01  3.050054085751E+01
  3.010376172543E+01  2.969277951974E+01  2.926735122011E+01  2.882725748733E+01
  2.837230608127E+01  2.790233550661E+01  2.741721888487E+01  2.691686804748E+01
  2.640123784165E+01  2.587033063598E+01  2.532420100820E+01  2.504546030743E+01
  2.476296059184E+01  2.447672554709E+01  2.418678305226E+01  2.389316533979E+01
  2.359590915584E+01  2.329505592058E+01  2.299065188807E+01  2.268274830503E+01
  2.237140156825E+01  2.205667337974E+01  2.173863089931E+01  2.141734689366E+01
  2.109289988149E+01  2.076537427377E+01  2.043486050842E+01  2.010145517858E+01
  1.976526115359E+01  1.942638769176E+01  1.908495054399E+01  1.874107204724E+01
  1.839488120683E+01  1.804651376640E+01  1.769611226458E+01  1.734382607708E+01
  1.698981144305E+01  1.663423147462E+01  1.627725614818E+01  1.591906227633E+01
  1.555983345921E+01  1.519976001383E+01  1.483903888021E+01  1.447787350315E+01
  1.411647368819E+01  1.375505543069E+01  1.339384071677E+01  1.303305729500E+01
  1.267293841768E+01  1.231372255086E+01  1.195565305186E+01  1.159897781383E+01
  1.124394887629E+01  1.089082200122E+01  1.053985621420E+01  1.019131331030E+01
  9.845457324584E+00  9.502553967307E+00  9.162870024107E+00  8.826672721682E+00
  8.494229059732E+00  8.165805110204E+00  7.841665285147E+00  7.522071574816E+00
  7.207282757942E+00  6.897553586464E+00  6.593133947324E+00  6.294268004304E+00
  6.001193323248E+00  5.714139984381E+00  5.433329685805E+00  5.158974842643E+00
  4.891277686659E+00  4.630429371538E+00  4.376609089394E+00  4.129983204345E+00
  3.890704409362E+00  3.658910912833E+00  3.434725661539E+00  3.218255606937E+00
  3.009591021797E+00  2.808804874307E+00  2.615952266836E+00  2.431069946451E+00
  2.254175894205E+00  2.085269000002E+00  1.924328829526E+00  1.771315489398E+00
  1.626169596177E+00  1.488812354265E+00  1.359145747102E+00  1.237052845193E+00
  1.122398233652E+00  1.015028560912E+00  9.147732091641E-01  8.214450858649E-01
  7.348415344069E-01  6.547453606502E-01  5.809259706281E-01  5.131406132672E-01
  4.511357204812E-01  3.946483355139E-01  3.434076189358E-01  2.971364202811E-01
  2.555529019626E-01  2.183722008587E-01  1.853081118536E-01  1.560747766658E-01
  1.303883605456E-01  1.079686988928E-01  8.854089557096E-02  7.183685469247E-02
  5.759672795174E-02  4.557026019857E-02  3.551801689101E-02  2.721247834582E-02
  2.043898731677E-02  1.499653836400E-02  1.069839971426E-02  7.372560822366E-03
  4.862001591607E-03  3.024782148106E-03  1.733955133976E-03  8.773056229562E-04
  3.569268971831E-04  8.864337757960E-05  1.294891075269E-06  3.589910230932E-05
  1.447112531841E-04  2.902022621350E-04  4.439776647057E-04  5.856607665510E-04
  7.017636812389E-04  7.845696064330E-04  8.310487404637E-04  8.418286653705E-04
  8.202378534130E-04  7.714382463421E-04  7.016596881133E-04  6.175454616186E-04
  5.256144070474E-04  4.318412177490E-04  3.413526636355E-04  2.582338316292E-04
  1.854351447664E-04  1.247680644149E-04  7.697511493587E-05  4.185829437254E-05
  1.844911511745E-05  5.203485839996E-06  2.053913674828E-07  1.364800498191E-06
  6.597342066422E-06  1.397590895576E-05  2.184731902136E-05  2.891029938969E-05
  3.425417302937E-05  3.736052125290E-05  3.807259434045E-05  3.653919333215E-05
  3.314103684005E-05  2.840819383551E-05  2.293699817681E-05  1.731401178559E-05
  1.205317413268E-05  7.550416466789E-06  4.057915399043E-06  1.678016342882E-06
  3.748774314036E-07  2.539955878646E-10  3.287095278675E-07  1.096994687848E-06
  2.042410581594E-06  2.935627417641E-06  3.604561388960E-06  3.947364746282E-06
  3.934164976956E-06  3.598695418538E-06  3.022201938525E-06  2.312837496764E-06
  1.584076564799E-06  9.354747723144E-07  4.384214928191E-07  1.285078434868E-07
  4.932844232575E-09  0.000000000000E+00  0.000000000000E+00  0.000000000000E+00
  0.000000000000E+00  0.000000000000E+00  0.000000000000E+00  0.000000000000E+00
  0.000000000000E+00  0.000000000000E+00  0.000000000000E+00  0.000000000000E+00
  0.000000000000E+00  0.000000000000E+00  0.000000000000E+00  0.000000000000E+00
  0.000000000000E+00  0.000000000000E+00  0.000000000000E+00  0.000000000000E+00
  0.000000000000E+00  0.000000000000E+00  0.000000000000E+00  0.000000000000E+00
  0.000000000000E+00  0.000000000000E+00  0.000000000000E+00  0.000000000000E+00
  0.000000000000E+00  0.000000000000E+00  0.000000000000E+00  0.000000000000E+00
  0.000000000000E+00  0.000000000000E+00  0.000000000000E+00  0.000000000000E+00
  0.000000000000E+00  0.000000000000E+00  0.000000000000E+00  0.000000000000E+00
  0.000000000000E+00  0.000000000000E+00  0.000000000000E+00  0.000000000000E+00
  0.000000000000E+00  0.000000000000E+00  0.000000000000E+00  0.000000000000E+00
  0.000000000000E+00  0.000000000000E+00
</data>
</radfunc>
</pseudocore-charge>
<semilocal-potentials set="scalar_relativistic">
<slps n="4" l="s" rc="1.56507198192" eref="-2.00302073764">
<radfunc>
<data npts="290">
  4.294035110738E+01  4.291161537805E+01  4.282586603244E+01  4.268331051927E+01
  4.248614951236E+01  4.222872785744E+01  4.190361438144E+01  4.153535467385E+01
  4.112632790869E+01  4.065594700456E+01  4.013408955220E+01  3.957664709673E+01
  3.891616495686E+01  3.824133333572E+01  3.746426497385E+01  3.670799765251E+01
  3.586067170047E+01  3.507982162566E+01  3.422684091633E+01  3.329818885574E+01
  3.229084055982E+01  3.142669750483E+01  3.050985586348E+01  2.953990685177E+01
  2.851690514847E+01  2.744142197608E+01  2.631459238093E+01  2.543679595508E+01
  2.453204679809E+01  2.360151379259E+01  2.264657084276E+01  2.166879516797E+01
  2.066996246692E+01  1.965203883640E+01  1.861716941352E+01  1.756766380349E+01
  1.650597845350E+01  1.543469623181E+01  1.471649959722E+01  1.399604651390E+01
  1.327416558712E+01  1.255169399704E+01  1.182947388805E+01  1.110834873144E+01
  1.038915969822E+01  9.672742078816E+00  8.959921785746E+00  8.251511974359E+00
  7.548309814750E+00  6.851093445903E+00  6.160619140282E+00  5.477618704024E+00
  4.802797134417E+00  4.136830552652E+00  3.480364425982E+00  2.834012089398E+00
  2.198353573001E+00  1.573934737248E+00  9.612667144413E-01  3.608256511764E-01
 -2.269472570060E-01 -8.016454506914E-01 -1.362896426236E+00 -1.910360907435E+00
 -2.443731788991E+00 -2.962732873549E+00 -3.467117425769E+00 -3.713759061583E+00
 -3.956666568384E+00 -4.195816654457E+00 -4.431187546277E+00 -4.662758928943E+00
 -4.890511885638E+00 -5.114428836320E+00 -5.334493475859E+00 -5.550690711865E+00
 -5.763006602409E+00 -5.971428293873E+00 -6.175943959147E+00 -6.376542736400E+00
 -6.573214668638E+00 -6.765950644271E+00 -6.954742338904E+00 -7.139582158568E+00
 -7.320463184595E+00 -7.497379120340E+00 -7.670324239942E+00 -7.839293339346E+00
 -8.004281689709E+00 -8.165284993440E+00 -8.322299342939E+00 -8.475321182371E+00
 -8.624347272276E+00 -8.769374657598E+00 -8.910400638829E+00 -9.047422746586E+00
 -9.180438719640E+00 -9.309446486440E+00 -9.434444150164E+00 -9.555429977302E+00
 -9.672402389770E+00 -9.785359960483E+00 -9.894301412330E+00 -9.999225620451E+00
 -1.010013161767E+01 -1.019701860298E+01 -1.028988595275E+01 -1.037873323468E+01
 -1.046356022398E+01 -1.054436692172E+01 -1.062115357494E+01 -1.069392069820E+01
 -1.076266909632E+01 -1.082739988774E+01 -1.088811452842E+01 -1.094481483553E+01
 -1.099750301085E+01 -1.104618166324E+01 -1.109085382982E+01 -1.113152299556E+01
 -1.116819311074E+01 -1.120086860596E+01 -1.122955440444E+01 -1.125425593118E+01
 -1.127497911889E+01 -1.129173041042E+01 -1.130451675779E+01 -1.131334561779E+01
 -1.131822494449E+01 -1.131916317912E+01 -1.131616923798E+01 -1.130925249947E+01
 -1.129842279154E+01 -1.128369038136E+01 -1.126506596941E+01 -1.124256069095E+01
 -1.121618612804E+01 -1.118595433648E+01 -1.115187789245E+01 -1.111396996465E+01
 -1.107224441859E+01 -1.102671596070E+01 -1.097740033102E+01 -1.092431455407E+01
 -1.086747725876E+01 -1.080690907912E+01 -1.074263314855E+01 -1.067467570107E+01
 -1.060306679377E+01 -1.052784116483E+01 -1.044903924159E+01 -1.036670831258E+01