S     ONCVPSP-3.3.0  r_core=   1.40265   1.56162   1.80194
     16.0000     14.0000      220902    zatom,zion,pspd
     8      11   2     4   600     0    pspcod,pspxc,lmax,lloc,mmax,r2well
  5.99000000  0.00000000  0.00000000    rchrg fchrg qchrg
     2     2     2     0     0    nproj
     1     1           extension_switch
   0                        -7.2466941182078D+00 -1.5742863050344D+00
     1  0.0000000000000D+00 -1.0915623960273D-10  9.5659946630633D-10
     2  1.0000000000000D-02  8.0045947140725D-02 -6.6927979039361D-02
     3  2.0000000000000D-02  1.5988959957655D-01 -1.3346180621464D-01
     4  3.0000000000000D-02  2.3932940527809D-01 -1.9920978629344D-01
     5  4.0000000000000D-02  3.1816529383468D-01 -2.6378511628443D-01
     6  5.0000000000000D-02  3.9619940796119D-01 -3.2680827925022D-01
     7  6.0000000000000D-02  4.7323682391991D-01 -3.8790937604128D-01
     8  7.0000000000000D-02  5.4908625729227D-01 -4.4673037539828D-01
     9  8.0000000000000D-02  6.2356075064403D-01 -5.0292726382678D-01
    10  9.0000000000000D-02  6.9647833976174D-01 -5.5617207781834D-01
    11  1.0000000000000D-01  7.6766269529617D-01 -6.0615480235937D-01
    12  1.1000000000000D-01  8.3694373682728D-01 -6.5258512121431D-01
    13  1.2000000000000D-01  9.0415821656501D-01 -6.9519400617114D-01
    14  1.3000000000000D-01  9.6915027011624D-01 -7.3373513427083D-01
    15  1.4000000000000D-01  1.0317719319810D+00 -7.6798612398320D-01
    16  1.5000000000000D-01  1.0918836136852D+00 -7.9774958331204D-01
    17  1.6000000000000D-01  1.1493545427123D+00 -8.2285396488480D-01
    18  1.7000000000000D-01  1.2040631606588D+00 -8.4315422517813D-01
    19  1.8000000000000D-01  1.2558974793070D+00 -8.5853228712134D-01
    20  1.9000000000000D-01  1.3047553935748D+00 -8.6889730737671D-01
    21  2.0000000000000D-01  1.3505449505766D+00 -8.7418575159210D-01
    22  2.1000000000000D-01  1.3931845742899D+00 -8.7436128282934D-01
    23  2.2000000000000D-01  1.4326032455878D+00 -8.6941447016770D-01
    24  2.3000000000000D-01  1.4687406376475D+00 -8.5936232614202D-01
    25  2.4000000000000D-01  1.5015472069884D+00 -8.4424768317851D-01
    26  2.5000000000000D-01  1.5309842406270D+00 -8.2413842051999D-01
    27  2.6000000000000D-01  1.5570238600497D+00 -7.9912655427096D-01
    28  2.7000000000000D-01  1.5796489829107D+00 -7.6932720412868D-01
    29  2.8000000000000D-01  1.5988532435464D+00 -7.3487745109030D-01
    30  2.9000000000000D-01  1.6146408735682D+00 -6.9593510093229D-01
    31  3.0000000000000D-01  1.6270265439459D+00 -6.5267736854425D-01
    32  3.1000000000000D-01  1.6360351701275D+00 -6.0529949826581D-01
    33  3.2000000000000D-01  1.6417016818556D+00 -5.5401333522734D-01
    34  3.3000000000000D-01  1.6440707594365D+00 -4.9904586233945D-01
    35  3.4000000000000D-01  1.6431965382967D+00 -4.4063771702506D-01
    36  3.5000000000000D-01  1.6391422837220D+00 -3.7904170105359D-01
    37  3.6000000000000D-01  1.6319800377203D+00 -3.1452129593753D-01
    38  3.7000000000000D-01  1.6217902399760D+00 -2.4734919530496D-01
    39  3.8000000000000D-01  1.6086613248822D+00 -1.7780586449074D-01
    40  3.9000000000000D-01  1.5926892966367D+00 -1.0617813631497D-01
    41  4.0000000000000D-01  1.5739772843812D+00 -3.2757850666570D-02
    42  4.1000000000000D-01  1.5526350793428D+00  4.2159455894073D-02
    43  4.2000000000000D-01  1.5287786559144D+00  1.1827580572805D-01
    44  4.3000000000000D-01  1.5025296785742D+00  1.9529197755054D-01
    45  4.4000000000000D-01  1.4740149965123D+00  2.7290864374938D-01
    46  4.5000000000000D-01  1.4433661277903D+00  3.5082744698694D-01
    47  4.6000000000000D-01  1.4107187348207D+00  4.2875201675746D-01
    48  4.7000000000000D-01  1.3762120929136D+00  5.0638892774853D-01
    49  4.8000000000000D-01  1.3399885535979D+00  5.8344860291291D-01
    50  4.9000000000000D-01  1.3021930043906D+00  6.5964616507604D-01
    51  5.0000000000000D-01  1.2629723266567D+00  7.3470224167137D-01
    52  5.1000000000000D-01  1.2224748531724D+00  8.0834372779493D-01
    53  5.2000000000000D-01  1.1808498269866D+00  8.8030451319415D-01
    54  5.3000000000000D-01  1.1382468631560D+00  9.5032617904643D-01
    55  5.4000000000000D-01  1.0948154149226D+00  1.0181586704375D+00
    56  5.5000000000000D-01  1.0507042458938D+00  1.0835609503177D+00
    57  5.6000000000000D-01  1.0060609097888D+00  1.1463016404019D+00
    58  5.7000000000000D-01  9.6103123931821D-01  1.2061596539883D+00
    59  5.8000000000000D-01  9.1575884577475D-01  1.2629248250211D+00
    60  5.9000000000000D-01  8.7038463092105D-01  1.3163985369177D+00
    61  6.0000000000000D-01  8.2504631277738D-01  1.3663943537413D+00
    62  6.1000000000000D-01  7.7987796692263D-01  1.4127386552531D+00
    63  6.2000000000000D-01  7.3500958493468D-01  1.4552712762270D+00
    64  6.3000000000000D-01  6.9056665160456D-01  1.4938461492015D+00
    65  6.4000000000000D-01  6.4666974256262D-01  1.5283319485812D+00
    66  6.5000000000000D-01  6.0343414395218D-01  1.5586127327274D+00
    67  6.6000000000000D-01  5.6096949577480D-01  1.5845885794129D+00
    68  6.7000000000000D-01  5.1937946051049D-01  1.6061762087876D+00
    69  6.8000000000000D-01  4.7876141858283D-01  1.6233095868398D+00
    70  6.9000000000000D-01  4.3920619219317D-01  1.6359405012687D+00
    71  7.0000000000000D-01  4.0079779898721D-01  1.6440391007318D+00
    72  7.1000000000000D-01  3.6361323694047D-01  1.6475943876173D+00
    73  7.2000000000000D-01  3.2772230175582D-01  1.6466146538459D+00
    74  7.3000000000000D-01  2.9318743795500D-01  1.6411278487412D+00
    75  7.4000000000000D-01  2.6006362471696D-01  1.6311818677422D+00
    76  7.5000000000000D-01  2.2839829736847D-01  1.6168447506767D+00
    77  7.6000000000000D-01  1.9823130526642D-01  1.5982047784872D+00
    78  7.7000000000000D-01  1.6959490662843D-01  1.5753704576970D+00
    79  7.8000000000000D-01  1.4251380066780D-01  1.5484703825332D+00
    80  7.9000000000000D-01  1.1700519717285D-01  1.5176529654856D+00
    81  8.0000000000000D-01  9.3078923440577D-02  1.4830860281583D+00
    82  8.1000000000000D-01  7.0737568231074D-02  1.4449562455712D+00
    83  8.2000000000000D-01  4.9976662156228D-02  1.4034684385617D+00
    84  8.3000000000000D-01  3.0784893654222D-02  1.3588447106185D+00
    85  8.4000000000000D-01  1.3144359434270D-02  1.3113234273179D+00
    86  8.5000000000000D-01 -2.9691519934355D-03  1.2611580385100D+00
    87  8.6000000000000D-01 -1.7585845357555D-02  1.2086157454898D+00
    88  8.7000000000000D-01 -3.0741574155700D-02  1.1539760175545D+00
    89  8.8000000000000D-01 -4.2477468854321D-02  1.0975289645606D+00
    90  8.9000000000000D-01 -5.2839540186447D-02  1.0395735743213D+00
    91  9.0000000000000D-01 -6.1878260210720D-02  9.8041582589019D-01
    92  9.1000000000000D-01 -6.9648124012903D-02  9.2036669192785D-01
    93  9.2000000000000D-01 -7.6207195128972D-02  8.5974004539836D-01
    94  9.3000000000000D-01 -8.1616637943264D-02  7.9885048777553D-01
    95  9.4000000000000D-01 -8.5940240463288D-02  7.3801111770113D-01
    96  9.5000000000000D-01 -8.9243930991911D-02  6.7753126061013D-01
    97  9.6000000000000D-01 -9.1595292305405D-02  6.1771418118493D-01
    98  9.7000000000000D-01 -9.3063077000119D-02  5.5885480159554D-01
    99  9.8000000000000D-01 -9.3716727689913D-02  5.0123744930299D-01
   100  9.9000000000000D-01 -9.3625905718640D-02  4.4513365872440D-01
   101  1.0000000000000D+00 -9.2860031997358D-02  3.9080005126189D-01
   102  1.0100000000000D+00 -9.1487843486443D-02  3.3847631809986D-01
   103  1.0200000000000D+00 -8.9576968708980D-02  2.8838332970699D-01
   104  1.0300000000000D+00 -8.7193525518284D-02  2.4072139520602D-01
   105  1.0400000000000D+00 -8.4401744139946D-02  1.9566869366253D-01
   106  1.0500000000000D+00 -8.1263618267944D-02  1.5337989787181D-01
   107  1.0600000000000D+00 -7.7838586729319D-02  1.1398500948863D-01
   108  1.0700000000000D+00 -7.4183247941644D-02  7.7588422362015D-02
   109  1.0800000000000D+00 -7.0351109042296D-02  4.4268228461865D-02
   110  1.0900000000000D+00 -6.6392371240997D-02  1.4075778364112D-02
   111  1.1000000000000D+00 -6.2353752553699D-02 -1.2964494724430D-02
   112  1.1100000000000D+00 -5.8278348730682D-02 -3.6854981092765D-02
   113  1.1200000000000D+00 -5.4205532768197D-02 -5.7624527831873D-02
   114  1.1300000000000D+00 -5.0170892994248D-02 -7.5327799560600D-02
   115  1.1400000000000D+00 -4.6206209313780D-02 -9.0044370118583D-02
   116  1.1500000000000D+00 -4.2339466822334D-02 -1.0187755187651D-01
   117  1.1600000000000D+00 -3.8594905583578D-02 -1.1095297281688D-01
   118  1.1700000000000D+00 -3.4993105031854D-02 -1.1741691408626D-01
   119  1.1800000000000D+00 -3.1551100502536D-02 -1.2143443091091D-01
   120  1.1900000000000D+00 -2.8282534921589D-02 -1.2318721329193D-01
   121  1.2000000000000D+00 -2.5197820627068D-02 -1.2287147582266D-01
   122  1.2100000000000D+00 -2.2304357725938D-02 -1.2069531191980D-01
   123  1.2200000000000D+00 -1.9606857391953D-02 -1.1687491344810D-01
   124  1.2300000000000D+00 -1.7107629984257D-02 -1.1163138695070D-01
   125  1.2400000000000D+00 -1.4806830275070D-02 -1.0518818992044D-01
   126  1.2500000000000D+00 -1.2702639643436D-02 -9.7769402514203D-02
   127  1.2600000000000D+00 -1.0791485567515D-02 -8.9597593235562D-02
   128  1.2700000000000D+00 -9.0682597840263D-03 -8.0891750734612D-02
   129  1.2800000000000D+00 -7.5265434298934D-03 -7.1865170682151D-02
   130  1.2900000000000D+00 -6.1588334503484D-03 -6.2723361164107D-02
   131  1.3000000000000D+00 -4.9567672082221D-03 -5.3661995020507D-02
   132  1.3100000000000D+00 -3.9113419488541D-03 -4.4864941769115D-02
   133  1.3200000000000D+00 -3.0131255814827D-03 -3.6502413291828D-02
   134  1.3300000000000D+00 -2.2524554723354D-03 -2.8729254688229D-02
   135  1.3400000000000D+00 -1.6196222244931D-03 -2.1683409062372D-02
   136  1.3500000000000D+00 -1.1050353319053D-03 -1.5484585401979D-02
   137  1.3600000000000D+00 -6.9953406987375D-04 -1.0236193236683D-02
   138  1.3700000000000D+00 -3.9361043390322D-04 -6.0079061395533D-03
   139  1.3800000000000D+00 -1.7846230383017D-04 -2.8524863822899D-03
   140  1.3900000000000D+00 -5.0916988707824D-05 -8.9695612548316D-04
   141  1.4000000000000D+00  2.5127585328437D-06 -4.0950867224427D-05
   142  1.4100000000000D+00  9.0000769240297D-06  1.0555498556402D-04
   143  1.4200000000000D+00 -3.0440702199317D-07 -3.8302266571525D-06
   144  1.4300000000000D+00 -1.9815776408586D-06 -2.5868651028060D-05
   145  1.4400000000000D+00  3.0724569722865D-07  3.7066100014845D-06
   146  1.4500000000000D+00  2.7328511059914D-07  3.3435573857387D-06
   147  1.4600000000000D+00 -2.0215762372876D-08 -1.2908842109216D-07
   148  1.4700000000000D+00 -4.3579017266198D-09 -2.7827526006090D-08
   149  1.4800000000000D+00  0.0000000000000D+00  0.0000000000000D+00
   150  1.4900000000000D+00  0.0000000000000D+00  0.0000000000000D+00
   151  1.5000000000000D+00  0.0000000000000D+00  0.0000000000000D+00
   152  1.5100000000000D+00  0.0000000000000D+00  0.0000000000000D+00
   153  1.5200000000000D+00  0.0000000000000D+00  0.0000000000000D+00
   154  1.5300000000000D+00  0.0000000000000D+00  0.0000000000000D+00
   155  1.5400000000000D+00  0.0000000000000D+00  0.0000000000000D+00
   156  1.5500000000000D+00  0.0000000000000D+00  0.0000000000000D+00
   157  1.5600000000000D+00  0.0000000000000D+00  0.0000000000000D+00
   158  1.5700000000000D+00  0.0000000000000D+00  0.0000000000000D+00
   159  1.5800000000000D+00  0.0000000000000D+00  0.0000000000000D+00
   160  1.5900000000000D+00  0.0000000000000D+00  0.0000000000000D+00
   161  1.6000000000000D+00  0.0000000000000D+00  0.0000000000000D+00
   162  1.6100000000000D+00  0.0000000000000D+00  0.0000000000000D+00
   163  1.6200000000000D+00  0.0000000000000D+00  0.0000000000000D+00
   164  1.6300000000000D+00  0.0000000000000D+00  0.0000000000000D+00
   165  1.6400000000000D+00  0.0000000000000D+00  0.0000000000000D+00
   166  1.6500000000000D+00  0.0000000000000D+00  0.0000000000000D+00
   167  1.6600000000000D+00  0.0000000000000D+00  0.0000000000000D+00
   168  1.6700000000000D+00  0.0000000000000D+00  0.0000000000000D+00
   169  1.6800000000000D+00  0.0000000000000D+00  0.0000000000000D+00
   170  1.6900000000000D+00  0.0000000000000D+00  0.0000000000000D+00
   171  1.7000000000000D+00  0.0000000000000D+00  0.0000000000000D+00
   172  1.7100000000000D+00  0.0000000000000D+00  0.0000000000000D+00
   173  1.7200000000000D+00  0.0000000000000D+00  0.0000000000000D+00
   174  1.7300000000000D+00  0.0000000000000D+00  0.0000000000000D+00
   175  1.7400000000000D+00  0.0000000000000D+00  0.0000000000000D+00
   176  1.7500000000000D+00  0.0000000000000D+00  0.0000000000000D+00
   177  1.7600000000000D+00  0.0000000000000D+00  0.0000000000000D+00
   178  1.7700000000000D+00  0.0000000000000D+00  0.0000000000000D+00
   179  1.7800000000000D+00  0.0000000000000D+00  0.0000000000000D+00
   180  1.7900000000000D+00  0.0000000000000D+00  0.0000000000000D+00
   181  1.8000000000000D+00  0.0000000000000D+00  0.0000000000000D+00
   182  1.8100000000000D+00  0.0000000000000D+00  0.0000000000000D+00
   183  1.8200000000000D+00  0.0000000000000D+00  0.0000000000000D+00
   184  1.8300000000000D+00  0.0000000000000D+00  0.0000000000000D+00
   185  1.8400000000000D+00  0.0000000000000D+00  0.0000000000000D+00
   186  1.8500000000000D+00  0.0000000000000D+00  0.0000000000000D+00
   187  1.8600000000000D+00  0.0000000000000D+00  0.0000000000000D+00
   188  1.8700000000000D+00  0.0000000000000D+00  0.0000000000000D+00
   189  1.8800000000000D+00  0.0000000000000D+00  0.0000000000000D+00
   190  1.8900000000000D+00  0.0000000000000D+00  0.0000000000000D+00
   191  1.9000000000000D+00  0.0000000000000D+00  0.0000000000000D+00
   192  1.9100000000000D+00  0.0000000000000D+00  0.0000000000000D+00
   193  1.9200000000000D+00  0.0000000000000D+00  0.0000000000000D+00
   194  1.9300000000000D+00  0.0000000000000D+00  0.0000000000000D+00
   195  1.9400000000000D+00  0.0000000000000D+00  0.0000000000000D+00
   196  1.9500000000000D+00  0.0000000000000D+00  0.0000000000000D+00
   197  1.9600000000000D+00  0.0000000000000D+00  0.0000000000000D+00
   198  1.9700000000000D+00  0.0000000000000D+00  0.0000000000000D+00
   199  1.9800000000000D+00  0.0000000000000D+00  0.0000000000000D+00
   200  1.9900000000000D+00  0.0000000000000D+00  0.0000000000000D+00
   201  2.0000000000000D+00  0.0000000000000D+00  0.0000000000000D+00
   202  2.0100000000000D+00  0.0000000000000D+00  0.0000000000000D+00
   203  2.0200000000000D+00  0.0000000000000D+00  0.0000000000000D+00
   204  2.0300000000000D+00  0.0000000000000D+00  0.0000000000000D+00
   205  2.0400000000000D+00  0.0000000000000D+00  0.0000000000000D+00
   206  2.0500000000000D+00  0.0000000000000D+00  0.0000000000000D+00
   207  2.0600000000000D+00  0.0000000000000D+00  0.0000000000000D+00
   208  2.0700000000000D+00  0.0000000000000D+00  0.0000000000000D+00
   209  2.0800000000000D+00  0.0000000000000D+00  0.0000000000000D+00
   210  2.0900000000000D+00  0.0000000000000D+00  0.0000000000000D+00
   211  2.1000000000000D+00  0.0000000000000D+00  0.0000000000000D+00
   212  2.1100000000000D+00  0.0000000000000D+00  0.0000000000000D+00
   213  2.1200000000000D+00  0.0000000000000D+00  0.0000000000000D+00
   214  2.1300000000000D+00  0.0000000000000D+00  0.0000000000000D+00
   215  2.1400000000000D+00  0.0000000000000D+00  0.0000000000000D+00
   216  2.1500000000000D+00  0.0000000000000D+00  0.0000000000000D+00
   217  2.1600000000000D+00  0.0000000000000D+00  0.0000000000000D+00
   218  2.1700000000000D+00  0.0000000000000D+00  0.0000000000000D+00
   219  2.1800000000000D+00  0.0000000000000D+00  0.0000000000000D+00
   220  2.1900000000000D+00  0.0000000000000D+00  0.0000000000000D+00
   221  2.2000000000000D+00  0.0000000000000D+00  0.0000000000000D+00
   222  2.2100000000000D+00  0.0000000000000D+00  0.0000000000000D+00
   223  2.2200000000000D+00  0.0000000000000D+00  0.0000000000000D+00
   224  2.2300000000000D+00  0.0000000000000D+00  0.0000000000000D+00
   225  2.2400000000000D+00  0.0000000000000D+00  0.0000000000000D+00
   226  2.2500000000000D+00  0.0000000000000D+00  0.0000000000000D+00
   227  2.2600000000000D+00  0.0000000000000D+00  0.0000000000000D+00
   228  2.2700000000000D+00  0.0000000000000D+00  0.0000000000000D+00
   229  2.2800000000000D+00  0.0000000000000D+00  0.0000000000000D+00
   230  2.2900000000000D+00  0.0000000000000D+00  0.0000000000000D+00
   231  2.3000000000000D+00  0.0000000000000D+00  0.0000000000000D+00
   232  2.3100000000000D+00  0.0000000000000D+00  0.0000000000000D+00
   233  2.3200000000000D+00  0.0000000000000D+00  0.0000000000000D+00
   234  2.3300000000000D+00  0.0000000000000D+00  0.0000000000000D+00
   235  2.3400000000000D+00  0.0000000000000D+00  0.0000000000000D+00
   236  2.3500000000000D+00  0.0000000000000D+00  0.0000000000000D+00
   237  2.3600000000000D+00  0.0000000000000D+00  0.0000000000000D+00
   238  2.3700000000000D+00  0.0000000000000D+00  0.0000000000000D+00
   239  2.3800000000000D+00  0.0000000000000D+00  0.0000000000000D+00
   240  2.3900000000000D+00  0.0000000000000D+00  0.0000000000000D+00
   241  2.4000000000000D+00  0.0000000000000D+00  0.0000000000000D+00
   242  2.4100000000000D+00  0.0000000000000D+00  0.0000000000000D+00
   243  2.4200000000000D+00  0.0000000000000D+00  0.0000000000000D+00
   244  2.4300000000000D+00  0.0000000000000D+00  0.0000000000000D+00
   245  2.4400000000000D+00  0.0000000000000D+00  0.0000000000000D+00
   246  2.4500000000000D+00  0.0000000000000D+00  0.0000000000000D+00
   247  2.4600000000000D+00  0.0000000000000D+00  0.0000000000000D+00
   248  2.4700000000000D+00  0.0000000000000D+00  0.0000000000000D+00
   249  2.4800000000000D+00  0.0000000000000D+00  0.0000000000000D+00
   250  2.4900000000000D+00  0.0000000000000D+00  0.0000000000000D+00
   251  2.5000000000000D+00  0.0000000000000D+00  0.0000000000000D+00
   252  2.5100000000000D+00  0.0000000000000D+00  0.0000000000000D+00
   253  2.5200000000000D+00  0.0000000000000D+00  0.0000000000000D+00
   254  2.5300000000000D+00  0.0000000000000D+00  0.0000000000000D+00
   255  2.5400000000000D+00  0.0000000000000D+00  0.0000000000000D+00
   256  2.5500000000000D+00  0.0000000000000D+00  0.0000000000000D+00
   257  2.5600000000000D+00  0.0000000000000D+00  0.0000000000000D+00
   258  2.5700000000000D+00  0.0000000000000D+00  0.0000000000000D+00
   259  2.5800000000000D+00  0.0000000000000D+00  0.0000000000000D+00
   260  2.5900000000000D+00  0.0000000000000D+00  0.0000000000000D+00
   261  2.6000000000000D+00  0.0000000000000D+00  0.0000000000000D+00
   262  2.6100000000000D+00  0.0000000000000D+00  0.0000000000000D+00
   263  2.6200000000000D+00  0.0000000000000D+00  0.0000000000000D+00
   264  2.6300000000000D+00  0.0000000000000D+00  0.0000000000000D+00
   265  2.6400000000000D+00  0.0000000000000D+00  0.0000000000000D+00
   266  2.6500000000000D+00  0.0000000000000D+00  0.0000000000000D+00
   267  2.6600000000000D+00  0.0000000000000D+00  0.0000000000000D+00
   268  2.6700000000000D+00  0.0000000000000D+00  0.0000000000000D+00
   269  2.6800000000000D+00  0.0000000000000D+00  0.0000000000000D+00
   270  2.6900000000000D+00  0.0000000000000D+00  0.0000000000000D+00
   271  2.7000000000000D+00  0.0000000000000D+00  0.0000000000000D+00
   272  2.7100000000000D+00  0.0000000000000D+00  0.0000000000000D+00
   273  2.7200000000000D+00  0.0000000000000D+00  0.0000000000000D+00
   274  2.7300000000000D+00  0.0000000000000D+00  0.0000000000000D+00
   275  2.7400000000000D+00  0.0000000000000D+00  0.0000000000000D+00
   276  2.7500000000000D+00  0.0000000000000D+00  0.0000000000000D+00
   277  2.7600000000000D+00  0.0000000000000D+00  0.0000000000000D+00
   278  2.7700000000000D+00  0.0000000000000D+00  0.0000000000000D+00
   279  2.7800000000000D+00  0.0000000000000D+00  0.0000000000000D+00
   280  2.7900000000000D+00  0.0000000000000D+00  0.0000000000000D+00
   281  2.8000000000000D+00  0.0000000000000D+00  0.0000000000000D+00
   282  2.8100000000000D+00  0.0000000000000D+00  0.0000000000000D+00
   283  2.8200000000000D+00  0.0000000000000D+00  0.0000000000000D+00
   284  2.8300000000000D+00  0.0000000000000D+00  0.0000000000000D+00
   285  2.8400000000000D+00  0.0000000000000D+00  0.0000000000000D+00
   286  2.8500000000000D+00  0.0000000000000D+00  0.0000000000000D+00
   287  2.8600000000000D+00  0.0000000000000D+00  0.0000000000000D+00
   288  2.8700000000000D+00  0.0000000000000D+00  0.0000000000000D+00
   289  2.8800000000000D+00  0.0000000000000D+00  0.0000000000000D+00
   290  2.8900000000000D+00  0.0000000000000D+00  0.0000000000000D+00
   291  2.9000000000000D+00  0.0000000000000D+00  0.0000000000000D+00
   292  2.9100000000000D+00  0.0000000000000D+00  0.0000000000000D+00
   293  2.9200000000000D+00  0.0000000000000D+00  0.0000000000000D+00
   294  2.9300000000000D+00  0.0000000000000D+00  0.0000000000000D+00
   295  2.9400000000000D+00  0.0000000000000D+00  0.0000000000000D+00
   296  2.9500000000000D+00  0.0000000000000D+00  0.0000000000000D+00
   297  2.9600000000000D+00  0.0000000000000D+00  0.0000000000000D+00
   298  2.9700000000000D+00  0.0000000000000D+00  0.0000000000000D+00
   299  2.9800000000000D+00  0.0000000000000D+00  0.0000000000000D+00
   300  2.9900000000000D+00  0.0000000000000D+00  0.0000000000000D+00
   301  3.0000000000000D+00  0.0000000000000D+00  0.0000000000000D+00
   302  3.0100000000000D+00  0.0000000000000D+00  0.0000000000000D+00
   303  3.0200000000000D+00  0.0000000000000D+00  0.0000000000000D+00
   304  3.0300000000000D+00  0.0000000000000D+00  0.0000000000000D+00
   305  3.0400000000000D+00  0.0000000000000D+00  0.0000000000000D+00
   306  3.0500000000000D+00  0.0000000000000D+00  0.0000000000000D+00
   307  3.0600000000000D+00  0.0000000000000D+00  0.0000000000000D+00
   308  3.0700000000000D+00  0.0000000000000D+00  0.0000000000000D+00
   309  3.0800000000000D+00  0.0000000000000D+00  0.0000000000000D+00
   310  3.0900000000000D+00  0.0000000000000D+00  0.0000000000000D+00
   311  3.1000000000000D+00  0.0000000000000D+00  0.0000000000000D+00
   312  3.1100000000000D+00  0.0000000000000D+00  0.0000000000000D+00
   313  3.1200000000000D+00  0.0000000000000D+00  0.0000000000000D+00
   314  3.1300000000000D+00  0.0000000000000D+00  0.0000000000000D+00
   315  3.1400000000000D+00  0.0000000000000D+00  0.0000000000000D+00
   316  3.1500000000000D+00  0.0000000000000D+00  0.0000000000000D+00
   317  3.1600000000000D+00  0.0000000000000D+00  0.0000000000000D+00
   318  3.1700000000000D+00  0.0000000000000D+00  0.0000000000000D+00
   319  3.1800000000000D+00  0.0000000000000D+00  0.0000000000000D+00
   320  3.1900000000000D+00  0.0000000000000D+00  0.0000000000000D+00
   321  3.2000000000000D+00  0.0000000000000D+00  0.0000000000000D+00
   322  3.2100000000000D+00  0.0000000000000D+00  0.0000000000000D+00
   323  3.2200000000000D+00  0.0000000000000D+00  0.0000000000000D+00
   324  3.2300000000000D+00  0.0000000000000D+00  0.0000000000000D+00
   325  3.2400000000000D+00  0.0000000000000D+00  0.0000000000000D+00
   326  3.2500000000000D+00  0.0000000000000D+00  0.0000000000000D+00
   327  3.2600000000000D+00  0.0000000000000D+00  0.0000000000000D+00
   328  3.2700000000000D+00  0.0000000000000D+00  0.0000000000000D+00
   329  3.2800000000000D+00  0.0000000000000D+00  0.0000000000000D+00
   330  3.2900000000000D+00  0.0000000000000D+00  0.0000000000000D+00
   331  3.3000000000000D+00  0.0000000000000D+00  0.0000000000000D+00
   332  3.3100000000000D+00  0.0000000000000D+00  0.0000000000000D+00
   333  3.3200000000000D+00  0.0000000000000D+00  0.0000000000000D+00
   334  3.3300000000000D+00  0.0000000000000D+00  0.0000000000000D+00
   335  3.3400000000000D+00  0.0000000000000D+00  0.0000000000000D+00
   336  3.3500000000000D+00  0.0000000000000D+00  0.0000000000000D+00
   337  3.3600000000000D+00  0.0000000000000D+00  0.0000000000000D+00
   338  3.3700000000000D+00  0.0000000000000D+00  0.0000000000000D+00
   339  3.3800000000000D+00  0.0000000000000D+00  0.0000000000000D+00
   340  3.3900000000000D+00  0.0000000000000D+00  0.0000000000000D+00
   341  3.4000000000000D+00  0.0000000000000D+00  0.0000000000000D+00
   342  3.4100000000000D+00  0.0000000000000D+00  0.0000000000000D+00
   343  3.4200000000000D+00  0.0000000000000D+00  0.0000000000000D+00
   344  3.4300000000000D+00  0.0000000000000D+00  0.0000000000000D+00
   345  3.4400000000000D+00  0.0000000000000D+00  0.0000000000000D+00
   346  3.4500000000000D+00  0.0000000000000D+00  0.0000000000000D+00
   347  3.4600000000000D+00  0.0000000000000D+00  0.0000000000000D+00
   348  3.4700000000000D+00  0.0000000000000D+00  0.0000000000000D+00
   349  3.4800000000000D+00  0.0000000000000D+00  0.0000000000000D+00
   350  3.4900000000000D+00  0.0000000000000D+00  0.0000000000000D+00
   351  3.5000000000000D+00  0.0000000000000D+00  0.0000000000000D+00
   352  3.5100000000000D+00  0.0000000000000D+00  0.0000000000000D+00
   353  3.5200000000000D+00  0.0000000000000D+00  0.0000000000000D+00
   354  3.5300000000000D+00  0.0000000000000D+00  0.0000000000000D+00
   355  3.5400000000000D+00  0.0000000000000D+00  0.0000000000000D+00
   356  3.5500000000000D+00  0.0000000000000D+00  0.0000000000000D+00
   357  3.5600000000000D+00  0.0000000000000D+00  0.0000000000000D+00
   358  3.5700000000000D+00  0.0000000000000D+00  0.0000000000000D+00
   359  3.5800000000000D+00  0.0000000000000D+00  0.0000000000000D+00
   360  3.5900000000000D+00  0.0000000000000D+00  0.0000000000000D+00
   361  3.6000000000000D+00  0.0000000000000D+00  0.0000000000000D+00
   362  3.6100000000000D+00  0.0000000000000D+00  0.0000000000000D+00
   363  3.6200000000000D+00  0.0000000000000D+00  0.0000000000000D+00
   364  3.6300000000000D+00  0.0000000000000D+00  0.0000000000000D+00
   365  3.6400000000000D+00  0.0000000000000D+00  0.0000000000000D+00
   366  3.6500000000000D+00  0.0000000000000D+00  0.0000000000000D+00
   367  3.6600000000000D+00  0.0000000000000D+00  0.0000000000000D+00
   368  3.6700000000000D+00  0.0000000000000D+00  0.0000000000000D+00
   369  3.6800000000000D+00  0.0000000000000D+00  0.0000000000000D+00
   370  3.6900000000000D+00  0.0000000000000D+00  0.0000000000000D+00
   371  3.7000000000000D+00  0.0000000000000D+00  0.0000000000000D+00
   372  3.7100000000000D+00  0.0000000000000D+00  0.0000000000000D+00
   373  3.7200000000000D+00  0.0000000000000D+00  0.0000000000000D+00
   374  3.7300000000000D+00  0.0000000000000D+00  0.0000000000000D+00
   375  3.7400000000000D+00  0.0000000000000D+00  0.0000000000000D+00
   376  3.7500000000000D+00  0.0000000000000D+00  0.0000000000000D+00
   377  3.7600000000000D+00  0.0000000000000D+00  0.0000000000000D+00
   378  3.7700000000000D+00  0.0000000000000D+00  0.0000000000000D+00
   379  3.7800000000000D+00  0.0000000000000D+00  0.0000000000000D+00
   380  3.7900000000000D+00  0.0000000000000D+00  0.0000000000000D+00
   381  3.8000000000000D+00  0.0000000000000D+00  0.0000000000000D+00
   382  3.8100000000000D+00  0.0000000000000D+00  0.0000000000000D+00
   383  3.8200000000000D+00  0.0000000000000D+00  0.0000000000000D+00
   384  3.8300000000000D+00  0.0000000000000D+00  0.0000000000000D+00
   385  3.8400000000000D+00  0.0000000000000D+00  0.0000000000000D+00
   386  3.8500000000000D+00  0.0000000000000D+00  0.0000000000000D+00
   387  3.8600000000000D+00  0.0000000000000D+00  0.0000000000000D+00
   388  3.8700000000000D+00  0.0000000000000D+00  0.0000000000000D+00
   389  3.8800000000000D+00  0.0000000000000D+00  0.0000000000000D+00
   390  3.8900000000000D+00  0.0000000000000D+00  0.0000000000000D+00
   391  3.9000000000000D+00  0.0000000000000D+00  0.0000000000000D+00
   392  3.9100000000000D+00  0.0000000000000D+00  0.0000000000000D+00
   393  3.9200000000000D+00  0.0000000000000D+00  0.0000000000000D+00
   394  3.9300000000000D+00  0.0000000000000D+00  0.0000000000000D+00
   395  3.9400000000000D+00  0.0000000000000D+00  0.0000000000000D+00
   396  3.9500000000000D+00  0.0000000000000D+00  0.0000000000000D+00
   397  3.9600000000000D+00  0.0000000000000D+00  0.0000000000000D+00
   398  3.9700000000000D+00  0.0000000000000D+00  0.0000000000000D+00
   399  3.9800000000000D+00  0.0000000000000D+00  0.0000000000000D+00
   400  3.9900000000000D+00  0.0000000000000D+00  0.0000000000000D+00
   401  4.0000000000000D+00  0.0000000000000D+00  0.0000000000000D+00
   402  4.0100000000000D+00  0.0000000000000D+00  0.0000000000000D+00
   403  4.0200000000000D+00  0.0000000000000D+00  0.0000000000000D+00
   404  4.0300000000000D+00  0.0000000000000D+00  0.0000000000000D+00
   405  4.0400000000000D+00  0.0000000000000D+00  0.0000000000000D+00
   406  4.0500000000000D+00  0.0000000000000D+00  0.0000000000000D+00
   407  4.0600000000000D+00  0.0000000000000D+00  0.0000000000000D+00
   408  4.0700000000000D+00  0.0000000000000D+00  0.0000000000000D+00
   409  4.0800000000000D+00  0.0000000000000D+00  0.0000000000000D+00
   410  4.0900000000000D+00  0.0000000000000D+00  0.0000000000000D+00
   411  4.1000000000000D+00  0.0000000000000D+00  0.0000000000000D+00
   412  4.1100000000000D+00  0.0000000000000D+00  0.0000000000000D+00
   413  4.1200000000000D+00  0.0000000000000D+00  0.0000000000000D+00
   414  4.1300000000000D+00  0.0000000000000D+00  0.0000000000000D+00
   415  4.1400000000000D+00  0.0000000000000D+00  0.0000000000000D+00
   416  4.1500000000000D+00  0.0000000000000D+00  0.0000000000000D+00
   417  4.1600000000000D+00  0.0000000000000D+00  0.0000000000000D+00
   418  4.1700000000000D+00  0.0000000000000D+00  0.0000000000000D+00
   419  4.1800000000000D+00  0.0000000000000D+00  0.0000000000000D+00
   420  4.1900000000000D+00  0.0000000000000D+00  0.0000000000000D+00
   421  4.2000000000000D+00  0.0000000000000D+00  0.0000000000000D+00
   422  4.2100000000000D+00  0.0000000000000D+00  0.0000000000000D+00