<?xml version="1.0" encoding="UTF-8" ?>
<psml version="1.1" energy_unit="hartree" length_unit="bohr"
 uuid="909d2960-be41-11e7-50bc-670bf7fdfe34"
 xmlns="http://esl.cecam.org/PSML/ns/1.1">
<provenance creator="ONCVPSP-3.3.0+psml-3.3.0-73 (scalar-relativistic)"
 date="2017-10-31">
<annotation action="semilocal-pseudopotential-generation"
 action-cont="projectors-generation" />
<input-file name="oncvpsp-input">
<![CDATA[# atsym z nc nv iexc psfile
S 16 3 2 4 upf
# n l f
1 0 2.0
2 0 2.0
2 1 6.0
3 0 2.0
3 1 4.0
# lmax
2
# l rc ep ncon nbas qcut
0 1.45 0.0 4 9 6.3
1 1.45 0.0 4 9 7.6
2 1.60 0.15 4 9 7.0
# lloc lpopt rc5 dvloc0
4 5 1.4 0.0
# l nproj debl
0 2 2.0
1 2 2.0
2 2 1.0
# icmod fcfact
3 6 1.25
# epsh1 epsh2 depsh
-12.0 12.0 0.02
# rlmax drl
6.0 0.01
 0
]]>
</input-file>
</provenance>
<pseudo-atom-spec atomic-label="S" atomic-number="16" z-pseudo="6"
 flavor="Hamann&apos;s oncvpsp" relativity="scalar" spin-dft="no"
 core-corrections="yes">
<annotation pseudo-energy="-10.1079990830" />
<exchange-correlation>
<annotation oncvpsp-xc-code="4" oncvpsp-xc-type="GGA -- Perdew-Burke-Ernzerhof" />
<libxc-info number-of-functionals="2">
<functional name="Perdew, Burke &amp; Ernzerhof (GGA)" type="exchange" id="101" />
<functional name="Perdew, Burke &amp; Ernzerhof (GGA)" type="correlation"
 id="130" />
</libxc-info>
</exchange-correlation>
<valence-configuration total-valence-charge="6">
<shell n="3" l="s" occupation="2" />
<shell n="3" l="p" occupation="4" />
</valence-configuration>
</pseudo-atom-spec>
<grid npts="457">
<annotation type="sampled from oncvpsp log grid"
 recipe="r(i:1..N) = r1*exp(a*(i-1)) + r=0; resampled"
 recipe-cont="r1: scale; a: step" scale="0.312500000000E-04"
 step="0.119285708653E-01" delta="0.500000000000E-02" rmax="44.0674949757" />
<grid-data>
  0.000000000000E+00  5.032089401363E-03  1.005120367503E-02  1.507840828192E-02
  2.031740843734E-02  2.548578698111E-02  3.084510470868E-02  3.601910451176E-02
  4.106941804742E-02  4.627257563705E-02  5.151672975532E-02  5.667511193686E-02
  6.235000413091E-02  6.777976739691E-02  7.280867859944E-02  7.821070922764E-02
  8.401354282973E-02  8.917679538664E-02  9.465736793826E-02  1.004747621413E-01
  1.066496781734E-01  1.118617474217E-01  1.173285353557E-01  1.230624903151E-01
  1.290766690016E-01  1.353847662102E-01  1.420011460131E-01  1.471747771426E-01
  1.525369029415E-01  1.580943909733E-01  1.638543590123E-01  1.698241841602E-01
  1.760115122937E-01  1.824242678575E-01  1.890706640132E-01  1.959592131586E-01
  2.030987378299E-01  2.104983820012E-01  2.155806549362E-01  2.207856342690E-01
  2.261162826228E-01  2.315756341504E-01  2.371667962613E-01  2.428929513903E-01
  2.487573588086E-01  2.547633564797E-01  2.609143629586E-01  2.672138793378E-01
  2.736654912406E-01  2.802728708611E-01  2.870397790552E-01  2.939700674807E-01
  3.010676807899E-01  3.083366588749E-01  3.157811391668E-01  3.234053589908E-01
  3.312136579783E-01  3.392104805365E-01  3.474003783786E-01  3.557880131142E-01
  3.643781589028E-01  3.731757051713E-01  3.821856593970E-01  3.914131499575E-01
  4.008634290501E-01  4.105418756810E-01  4.204539987275E-01  4.254994467122E-01
  4.306054400728E-01  4.357727053536E-01  4.410019778179E-01  4.462940015517E-01
  4.516495295703E-01  4.570693239252E-01  4.625541558123E-01  4.681048056820E-01
  4.737220633502E-01  4.794067281104E-01  4.851596088477E-01  4.909815241539E-01
  4.968733024437E-01  5.028357820731E-01  5.088698114579E-01  5.149762491954E-01
  5.211559641858E-01  5.274098357560E-01  5.337387537851E-01  5.401436188305E-01
  5.466253422565E-01  5.531848463636E-01  5.598230645199E-01  5.665409412942E-01
  5.733394325897E-01  5.802195057808E-01  5.871821398501E-01  5.942283255283E-01
  6.013590654347E-01  6.085753742199E-01  6.158782787105E-01  6.232688180550E-01
  6.307480438717E-01  6.383170203982E-01  6.459768246429E-01  6.537285465387E-01
  6.615732890971E-01  6.695121685663E-01  6.775463145891E-01  6.856768703642E-01
  6.939049928085E-01  7.022318527222E-01  7.106586349549E-01  7.191865385744E-01
  7.278167770372E-01  7.365505783617E-01  7.453891853020E-01  7.543338555257E-01
  7.633858617920E-01  7.725464921335E-01  7.818170500391E-01  7.911988546395E-01
  8.006932408952E-01  8.103015597860E-01  8.200251785034E-01  8.298654806454E-01
  8.398238664132E-01  8.499017528101E-01  8.601005738439E-01  8.704217807300E-01
  8.808668420987E-01  8.914372442039E-01  9.021344911344E-01  9.129601050280E-01
  9.239156262883E-01  9.350026138038E-01  9.462226451694E-01  9.575773169115E-01
  9.690682447144E-01  9.806970636510E-01  9.924654284148E-01  1.004375013556E+00
  1.016427513718E+00  1.028624643883E+00  1.040968139610E+00  1.053459757285E+00
  1.066101274372E+00  1.078894489665E+00  1.091841223541E+00  1.104943318223E+00
  1.118202638042E+00  1.131621069699E+00  1.145200522535E+00  1.158942928805E+00
  1.172850243951E+00  1.186924446878E+00  1.201167540241E+00  1.215581550724E+00
  1.230168529332E+00  1.244930551684E+00  1.259869718305E+00  1.274988154924E+00
  1.290288012783E+00  1.305771468937E+00  1.321440726564E+00  1.337298015283E+00
  1.353345591466E+00  1.369585738564E+00  1.386020767427E+00  1.402653016636E+00
  1.419484852835E+00  1.436518671069E+00  1.453756895122E+00  1.471201977864E+00
  1.488856401598E+00  1.506722678417E+00  1.524803350558E+00  1.543100990765E+00
  1.561618202654E+00  1.580357621086E+00  1.599321912539E+00  1.618513775489E+00
  1.637935940795E+00  1.657591172085E+00  1.677482266150E+00  1.697612053344E+00
  1.717983397984E+00  1.738599198760E+00  1.759462389145E+00  1.780575937814E+00
  1.801942849068E+00  1.823566163257E+00  1.845448957216E+00  1.867594344703E+00
  1.890005476839E+00  1.912685542561E+00  1.935637769072E+00  1.958865422301E+00
  1.982371807368E+00  2.006160269057E+00  2.030234192286E+00  2.054597002593E+00
  2.079252166624E+00  2.104203192624E+00  2.129453630935E+00  2.155007074506E+00
  2.180867159400E+00  2.207037565313E+00  2.233522016097E+00  2.260324280290E+00
  2.287448171654E+00  2.314897549713E+00  2.342676320310E+00  2.370788436154E+00
  2.399237897388E+00  2.428028752156E+00  2.457165097182E+00  2.486651078348E+00
  2.516490891288E+00  2.546688781984E+00  2.577249047368E+00  2.608176035936E+00
  2.639474148367E+00  2.671147838148E+00  2.703201612206E+00  2.735640031552E+00
  2.768467711931E+00  2.801689324474E+00  2.835309596367E+00  2.869333311524E+00
  2.903765311262E+00  2.938610494997E+00  2.973873820937E+00  3.009560306789E+00
  3.045675030470E+00  3.082223130836E+00  3.119209808406E+00  3.156640326107E+00
  3.194520010020E+00  3.232854250140E+00  3.271648501142E+00  3.310908283155E+00
  3.350639182553E+00  3.390846852744E+00  3.431537014977E+00  3.472715459157E+00
  3.514388044666E+00  3.556560701202E+00  3.599239429617E+00  3.642430302772E+00
  3.686139466406E+00  3.730373140002E+00  3.775137617682E+00  3.820439269095E+00
  3.866284540324E+00  3.912679954808E+00  3.959632114265E+00  4.007147699637E+00
  4.055233472032E+00  4.103896273697E+00  4.153143028981E+00  4.202980745329E+00
  4.253416514273E+00  4.304457512444E+00  4.356111002593E+00  4.408384334624E+00
  4.461284946640E+00  4.514820366000E+00  4.568998210392E+00  4.623826188916E+00
  4.679312103183E+00  4.735463848421E+00  4.792289414603E+00  4.849796887578E+00
  4.907994450229E+00  4.966890383631E+00  5.026493068235E+00  5.086810985054E+00
  5.147852716874E+00  5.209626949477E+00  5.272142472871E+00  5.335408182545E+00
  5.399433080736E+00  5.464226277704E+00  5.529796993037E+00  5.596154556953E+00
  5.663308411637E+00  5.731268112576E+00  5.800043329927E+00  5.869643849887E+00
  5.940079576085E+00  6.011360530998E+00  6.083496857370E+00  6.156498819659E+00
  6.230376805494E+00  6.305141327160E+00  6.380803023086E+00  6.457372659363E+00
  6.534861131276E+00  6.613279464851E+00  6.692638818429E+00  6.772950484250E+00
  6.854225890061E+00  6.936476600742E+00  7.019714319951E+00  7.103950891790E+00
  7.189198302492E+00  7.275468682122E+00  7.362774306307E+00  7.451127597983E+00
  7.540541129159E+00  7.631027622709E+00  7.722599954181E+00  7.815271153631E+00
  7.909054407475E+00  8.003963060365E+00  8.100010617089E+00  8.197210744494E+00
  8.295577273428E+00  8.395124200709E+00  8.495865691118E+00  8.597816079411E+00
  8.700989872364E+00  8.805401750832E+00  8.911066571842E+00  9.017999370705E+00
  9.126215363153E+00  9.235729947511E+00  9.346558706881E+00  9.458717411364E+00
  9.572222020300E+00  9.687088684543E+00  9.803333748758E+00  9.920973753743E+00
  1.004002543879E+01  1.016050574405E+01  1.028243181298E+01  1.040582099474E+01
  1.053069084667E+01  1.065705913683E+01  1.078494384648E+01  1.091436317263E+01
  1.104533553071E+01  1.117787955707E+01  1.131201411176E+01  1.144775828110E+01
  1.158513138047E+01  1.172415295704E+01  1.186484279252E+01  1.200722090603E+01
  1.215130755691E+01  1.229712324759E+01  1.244468872656E+01  1.259402499128E+01
  1.274515329117E+01  1.289809513067E+01  1.305287227224E+01  1.320950673950E+01
  1.336802082038E+01  1.352843707022E+01  1.369077831507E+01  1.385506765485E+01
  1.402132846670E+01  1.418958440830E+01  1.435985942120E+01  1.453217773426E+01
  1.470656386707E+01  1.488304263347E+01  1.506163914508E+01  1.524237881482E+01
  1.542528736059E+01  1.561039080892E+01  1.579771549863E+01  1.598728808461E+01
  1.617913554163E+01  1.637328516813E+01  1.656976459015E+01  1.676860176523E+01
  1.696982498641E+01  1.717346288625E+01  1.737954444088E+01  1.758809897417E+01
  1.779915616186E+01  1.801274603580E+01  1.822889898823E+01  1.844764577609E+01
  1.866901752541E+01  1.889304573571E+01  1.911976228454E+01  1.934919943195E+01
  1.958138982514E+01  1.981636650304E+01  2.005416290108E+01  2.029481285589E+01
  2.053835061016E+01  2.078481081748E+01  2.103422854729E+01  2.128663928986E+01
  2.154207896134E+01  2.180058390887E+01  2.206219091578E+01  2.232693720677E+01
  2.259486045325E+01  2.286599877869E+01  2.314039076403E+01  2.341807545320E+01
  2.369909235864E+01  2.398348146694E+01  2.427128324455E+01  2.456253864348E+01
  2.485728910720E+01  2.515557657649E+01  2.545744349541E+01  2.576293281735E+01
  2.607208801116E+01  2.638495306729E+01  2.670157250410E+01  2.702199137415E+01
  2.734625527064E+01  2.767441033389E+01  2.800650325790E+01  2.834258129699E+01
  2.868269227255E+01  2.902688457982E+01  2.937520719478E+01  2.972770968112E+01
  3.008444219729E+01  3.044545550366E+01  3.081080096970E+01  3.118053058134E+01
  3.155469694832E+01  3.193335331170E+01  3.231655355144E+01  3.270435219405E+01
  3.309680442038E+01  3.349396607343E+01  3.389589366631E+01  3.430264439030E+01
  3.471427612299E+01  3.513084743646E+01  3.555241760570E+01  3.597904661697E+01
  3.641079517637E+01  3.684772471849E+01  3.728989741511E+01  3.773737618409E+01
  3.819022469830E+01  3.864850739468E+01  3.911228948342E+01  3.958163695722E+01
  4.005661660071E+01  4.053729599991E+01  4.102374355191E+01  4.151602847454E+01
  4.201422081623E+01  4.251839146603E+01  4.302861216362E+01  4.354495550958E+01
  4.406749497570E+01
</grid-data>
</grid>
<valence-charge total-charge="6" is-unscreening-charge="yes"
 rescaled-to-z-pseudo="no">
<radfunc>
<data npts="457">
  1.452132717646E-02  1.458235705981E-02  1.476484395284E-02  1.506945530105E-02
  1.551678449277E-02  1.608818166766E-02  1.681743178594E-02  1.765388022568E-02
  1.859615622822E-02  1.969738054622E-02  2.094172648274E-02  2.229794893845E-02
  2.394217731548E-02  2.566543749772E-02  2.739309491415E-02  2.939076239192E-02
  3.170133272325E-02  3.390160870394E-02  3.638690267563E-02  3.919495646842E-02
  4.236870997118E-02  4.520365450113E-02  4.833195344632E-02  5.178487597719E-02
  5.559718791829E-02  5.980756798627E-02  6.445907610528E-02  6.826585230545E-02
  7.236986911862E-02  7.679525700492E-02  8.156820910975E-02  8.671716515447E-02
  9.227301116122E-02  9.826929594358E-02  1.047424651990E-01  1.117321138845E-01
  1.192812573264E-01  1.274366211871E-01  1.332352034453E-01  1.393417750646E-01
  1.457733330705E-01  1.525478231984E-01  1.596841869598E-01  1.672024095227E-01
  1.751235680933E-01  1.834698804108E-01  1.922647528820E-01  2.015328277836E-01
  2.113000288461E-01  2.215936044083E-01  2.324421671823E-01  2.438757295102E-01
  2.559257328068E-01  2.686250696855E-01  2.820080970344E-01  2.961106380699E-01
  3.109699711254E-01  3.266248026455E-01  3.431152215513E-01  3.604826318170E-01
  3.787696597647E-01  3.980200322406E-01  4.182784214915E-01  4.395902522287E-01
  4.620014660494E-01  4.855582381055E-01  5.103066406803E-01  5.231419769518E-01
  5.362922481665E-01  5.497629980070E-01  5.635596778677E-01  5.776876286063E-01
  5.921520610822E-01  6.069580354399E-01  6.221104391039E-01  6.376139634482E-01
  6.534730791112E-01  6.696920099264E-01  6.862747054453E-01  7.032248120328E-01
  7.205456425196E-01  7.382401444017E-01  7.563108665838E-01  7.747599246689E-01
  7.935889648034E-01  8.127991260949E-01  8.323910016291E-01  8.523645981182E-01
  8.727192942247E-01  8.934537976144E-01  9.145661008007E-01  9.360534358554E-01
  9.579122280703E-01  9.801380486691E-01  1.002725566677E+00  1.025668500072E+00
  1.048959566354E+00  1.072590432684E+00  1.096551665747E+00  1.120832681537E+00
  1.145421695240E+00  1.170305671439E+00  1.195470274866E+00  1.220899821945E+00
  1.246577233396E+00  1.272483988190E+00  1.298600079150E+00  1.324903970546E+00
  1.351372558030E+00  1.377981131304E+00  1.404703339915E+00  1.431511162649E+00
  1.458374880977E+00  1.485263057079E+00  1.512142516986E+00  1.538978339445E+00
  1.565733851122E+00  1.592370628824E+00  1.618848509446E+00  1.645125608406E+00
  1.671158347354E+00  1.696901491969E+00  1.722308200712E+00  1.747330085387E+00
  1.771917284385E+00  1.796018549485E+00  1.819581347027E+00  1.842551974261E+00
  1.864875691576E+00  1.886496871218E+00  1.907359162977E+00  1.927405677148E+00
  1.946579184878E+00  1.964822335757E+00  1.982077892270E+00  1.998288980376E+00
  2.013399355196E+00  2.027353680390E+00  2.040097819481E+00  2.051579136974E+00
  2.061746806767E+00  2.070552125039E+00  2.077948824457E+00  2.083893386339E+00
  2.088345347241E+00  2.091267596330E+00  2.092626659972E+00  2.092392970098E+00
  2.090541113156E+00  2.087050056904E+00  2.081903352777E+00  2.075089312224E+00
  2.066601156115E+00  2.056437137138E+00  2.044600635883E+00  2.031100232148E+00
  2.015949753701E+00  1.999168305341E+00  1.980780281501E+00  1.960815365822E+00
  1.939308520979E+00  1.916299971594E+00  1.891835182287E+00  1.865964831760E+00
  1.838744782408E+00  1.810236043294E+00  1.780504722597E+00  1.749621963887E+00
  1.717663859139E+00  1.684711330203E+00  1.650849969983E+00  1.616169479451E+00
  1.580761569925E+00  1.544717011276E+00  1.508124896777E+00  1.471072888961E+00
  1.433646747130E+00  1.395930143088E+00  1.358004449256E+00  1.319948547869E+00
  1.281838657512E+00  1.243748177299E+00  1.205747548924E+00  1.167904136646E+00
  1.130282125155E+00  1.092942435156E+00  1.055942656368E+00  1.019336997559E+00
  9.831762531064E-01  9.475077855264E-01  9.123755232982E-01  8.778199732713E-01
  8.438782468693E-01  8.105840992656E-01  7.779679806618E-01  7.460570987755E-01
  7.148754916193E-01  6.844441096452E-01  6.547809063191E-01  6.259009361989E-01
  5.978164595926E-01  5.705370528946E-01  5.440697237149E-01  5.184190299573E-01
  4.935872019552E-01  4.695742670004E-01  4.463781753836E-01  4.239949272926E-01
  4.024186998859E-01  3.816419739121E-01  3.616556592942E-01  3.424492191412E-01
  3.240107916994E-01  3.063273097981E-01  2.893846173966E-01  2.731675828777E-01
  2.576602087849E-01  2.428457377353E-01  2.287067542940E-01  2.152252826161E-01
  2.023828797200E-01  1.901607242804E-01  1.785397008618E-01  1.675004795488E-01
  1.570235909529E-01  1.470894966037E-01  1.376786547539E-01  1.287715816478E-01
  1.203489083217E-01  1.123914330192E-01  1.048801693185E-01  9.779639008048E-02
  9.112166733464E-02  8.483790822988E-02  7.892738718225E-02  7.337277435813E-02
  6.815716063534E-02  6.326407918867E-02  5.867752384874E-02  5.438196438613E-02
  5.036235887401E-02  4.660416328452E-02  4.309333847481E-02  3.981635471983E-02
  3.676019394905E-02  3.391234984437E-02  3.126082595605E-02  2.879413199245E-02
  2.650127843807E-02  2.437176965207E-02  2.239559559720E-02  2.056322234545E-02
  1.886558150327E-02  1.729405869454E-02  1.584048123456E-02  1.449710512287E-02
  1.325660147662E-02  1.211204251991E-02  1.105688723760E-02  1.008496679526E-02
  9.190469819448E-03  8.367927625353E-03  7.612199471236E-03  6.918457911745E-03
  6.282174314857E-03  5.699104599949E-03  5.165275247514E-03  4.676969624257E-03
  4.230714660826E-03  3.823267913239E-03  3.451605033301E-03  3.112907667805E-03
  2.804551801309E-03  2.524096552620E-03  2.269273430899E-03  2.037976053509E-03
  1.828250324338E-03  1.638285068382E-03  1.466403115795E-03  1.311052826472E-03
  1.170800044405E-03  1.044320469644E-03  9.303924345447E-04  8.278900701635E-04
  7.357768481298E-04  6.530994829606E-04  5.789821796907E-04  5.126212117284E-04
  4.532798140387E-04  4.002833770596E-04  3.530149271422E-04  3.109108797558E-04
  2.734570521897E-04  2.401849229934E-04  2.106681259205E-04  1.845191666564E-04
  1.613863511151E-04  1.409509145744E-04  1.229243413818E-04  1.070458653970E-04
  9.308014174913E-05  8.081508086762E-05  7.005983610814E-05  6.064293662970E-05
  5.241055749860E-05  4.522491929544E-05  3.896280978830E-05  3.351422051112E-05
  2.878109135306E-05  2.467615652451E-05  2.112188552032E-05  1.804951295228E-05
  1.539815137177E-05  1.311398145036E-05  1.114951413247E-05  9.462919618292E-06
  8.017418279037E-06  6.780728848311E-06  5.724569473376E-06  4.824207447518E-06
  4.058053679004E-06  3.407298182467E-06  2.855583104447E-06  2.388710015333E-06
  1.994378414582E-06  1.661952604128E-06  1.382254285820E-06  1.147378431992E-06
  9.505301635167E-07  7.858805465443E-07  6.484393873776E-07  5.339432643290E-07
  4.387571859695E-07  3.597884067896E-07  2.944110640695E-07  2.404004237899E-07
  1.958756388871E-07  1.592500302838E-07  1.291880001951E-07  1.045677784925E-07
  8.444928677139E-08  6.804648153776E-08  5.470360799532E-08  4.387485965123E-08
  3.510699675487E-08  2.802452883001E-08  2.231711364123E-08  1.772886722906E-08
  1.404931752589E-08  1.110576788119E-08  8.756866924671E-09  6.887207905013E-09
  5.402804270373E-09  4.227309096220E-09  3.298864289690E-09  2.567481562329E-09
  1.992871200891E-09  1.542646896677E-09  1.190845517860E-09  9.167099092047E-10
  7.036907460158E-10  5.386303048029E-10  4.110968781149E-10  3.128435775071E-10
  2.373695460089E-10  1.795652372472E-10  1.354264990545E-10  1.018248014264E-10
  7.632313946053E-11  5.702898047553E-11  4.247716251702E-11  3.153693384807E-11
  2.333838876756E-11  1.721443787367E-11  1.265517966365E-11  9.272139979276E-12
  6.770337483714E-12  4.926535142717E-12  3.572364880140E-12  2.581278103474E-12
  1.858489514865E-12  1.333254641429E-12  9.529604340331E-13  6.786194139390E-13
  4.814464235799E-13  3.402673773655E-13  2.395650567961E-13  1.680108535718E-13
  1.173658002742E-13  8.166116101669E-14  5.658983685235E-14  3.905612292777E-14
  2.684393889252E-14  1.837334146412E-14  1.252255488623E-14  8.498424368869E-15
  5.742516065105E-15  3.863327899349E-15  2.587578008146E-15  1.725339420306E-15
  1.145199687181E-15  7.566403767091E-16  4.975939505396E-16  3.256965947216E-16
  2.121674088662E-16  1.375452674227E-16  8.873349591153E-17  5.696092250742E-17
  3.638183903455E-17  0.000000000000E+00  0.000000000000E+00  0.000000000000E+00
  0.000000000000E+00  0.000000000000E+00  0.000000000000E+00  0.000000000000E+00
  0.000000000000E+00  0.000000000000E+00  0.000000000000E+00  0.000000000000E+00
  0.000000000000E+00  0.000000000000E+00  0.000000000000E+00  0.000000000000E+00
  0.000000000000E+00  0.000000000000E+00  0.000000000000E+00  0.000000000000E+00
  0.000000000000E+00  0.000000000000E+00  0.000000000000E+00  0.000000000000E+00
  0.000000000000E+00  0.000000000000E+00  0.000000000000E+00  0.000000000000E+00
  0.000000000000E+00  0.000000000000E+00  0.000000000000E+00  0.000000000000E+00
  0.000000000000E+00  0.000000000000E+00  0.000000000000E+00  0.000000000000E+00
  0.000000000000E+00  0.000000000000E+00  0.000000000000E+00  0.000000000000E+00
  0.000000000000E+00  0.000000000000E+00  0.000000000000E+00  0.000000000000E+00
  0.000000000000E+00  0.000000000000E+00  0.000000000000E+00  0.000000000000E+00
  0.000000000000E+00
</data>
</radfunc>
</valence-charge>
<pseudocore-charge matching-radius="0.912960105028"
 number-of-continuous-derivatives="4">
<annotation model-charge-form="Teter function with specified parameters" />
<radfunc>
<data npts="290">
  1.266997276323E+01  1.266919445640E+01  1.266686782512E+01  1.266298616967E+01
  1.265729041622E+01  1.265002278889E+01  1.264076018800E+01  1.263015356087E+01
  1.261822735087E+01  1.260431924070E+01  1.258864207561E+01  1.257160165721E+01
  1.255100675880E+01  1.252949683681E+01  1.250800828869E+01  1.248325565358E+01
  1.245475072123E+01  1.242772951614E+01  1.239735071420E+01  1.236320647531E+01
  1.232484193822E+01  1.229077311134E+01  1.225339483283E+01  1.221239681743E+01
  1.216744203765E+01  1.211816492058E+01  1.206416953640E+01  1.202032037968E+01
  1.197338408060E+01  1.192315651317E+01  1.186942208678E+01  1.181195342581E+01
  1.175051109848E+01  1.168484340832E+01  1.161468626289E+01  1.153976313721E+01
  1.145978515130E+01  1.137445128415E+01  1.131443255573E+01  1.125179917754E+01
  1.118645355797E+01  1.111829610572E+01  1.104722537230E+01  1.097313822027E+01
  1.089593001957E+01  1.081549487447E+01  1.073172588379E+01  1.064451543712E+01
  1.055375555003E+01  1.045933824109E+01  1.036115595392E+01  1.025910202724E+01
  1.015307121619E+01  1.004296026794E+01  9.928668554772E+00  9.810098767618E+00
  9.687157672807E+00  9.559756934778E+00  9.427814006979E+00  9.291253092936E+00
  9.150006178919E+00  9.004014139050E+00  8.853227912955E+00  8.697609755181E+00
  8.537134554578E+00  8.371791220616E+00  8.201584132211E+00  8.114662647847E+00
  8.026534643066E+00  7.937205694376E+00  7.846682635675E+00  7.754973608759E+00
  7.662088114146E+00  7.568037062097E+00  7.472832823707E+00  7.376489281915E+00
  7.279021882300E+00  7.180447683471E+00  7.080785406911E+00  6.980055486048E+00
  6.878280114382E+00  6.775483292432E+00  6.671690873290E+00  6.566930606528E+00
  6.461232180210E+00  6.354627260730E+00  6.247149530210E+00  6.138834721139E+00
  6.029720647962E+00  5.919847235280E+00  5.809256542335E+00  5.697992783434E+00
  5.586102343932E+00  5.473633791439E+00  5.360637881831E+00  5.247167559714E+00
  5.133277952918E+00  5.019026360643E+00  4.904472234828E+00  4.789677154373E+00
  4.674704791773E+00  4.559620871793E+00  4.444493121765E+00  4.329391213148E+00
  4.214386693947E+00  4.099552911664E+00  3.984964926419E+00  3.870699413947E+00
  3.756834558166E+00  3.643449933086E+00  3.530626373817E+00  3.418445836532E+00
  3.306991247240E+00  3.196346339300E+00  3.086595479683E+00  2.977823484003E+00
  2.870115420475E+00  2.763556402970E+00  2.658231373467E+00  2.554224874269E+00
  2.451620810442E+00  2.350502203036E+00  2.250950933767E+00  2.153047481913E+00
  2.056870654329E+00  1.962497309566E+00  1.870002077216E+00  1.779457073723E+00
  1.690931616012E+00  1.604491934406E+00  1.520200886437E+00  1.438117673240E+00
  1.358297560351E+00  1.280791604830E+00  1.205646390706E+00  1.132903774849E+00
  1.062600645419E+00  9.947686951258E-01  9.294342115440E-01  8.666178867718E-01
  8.063346487068E-01  7.485935161962E-01  6.933974802642E-01  6.407434135474E-01
  5.906220099590E-01  5.430177564689E-01  4.979089387169E-01  4.552676819747E-01
  4.150600287362E-01  3.772460539483E-01  3.417800185888E-01  3.086105619663E-01
  2.776809327478E-01  2.489292583290E-01  2.222888517398E-01  1.976885548379E-01
  1.750531160863E-01  1.543036007397E-01  1.353578307929E-01  1.181308515713E-01
  1.025354213823E-01  8.848252020307E-02  7.588187296597E-02  6.464248262118E-02
  5.467316782847E-02  4.588309985168E-02  3.818233302230E-02  3.148232300490E-02
  2.569642704772E-02  2.074038044467E-02  1.653274357536E-02  1.299531413337E-02
  1.005349950226E-02  7.636644694268E-03  5.678311827120E-03  4.116507774373E-03
  2.893857378210E-03  1.957720448795E-03  1.260251678888E-03  7.584035594806E-04
  4.138733726795E-04  1.929963402730E-04  6.658799649445E-05  9.739806012234E-06
  1.572936813042E-06  2.495589585901E-05  6.619241740590E-05  1.146865355301E-04
  1.625921522683E-04  2.044546130576E-04  2.368518087926E-04  2.580421313157E-04
  2.676262154359E-04  2.662288115540E-04  2.552063619351E-04  2.363849213589E-04
  2.118319972460E-04  1.836647199559E-04  1.538955309683E-04  1.243153395323E-04
  9.641289412131E-05  7.132799122559E-05  4.983514654990E-05  3.235352442046E-05
  1.897829561100E-05  9.528198712530E-06  3.603931875620E-06  6.521044629630E-07
  2.982311167815E-08  1.065552001437E-06  3.112638288869E-06  5.592785152396E-06
  8.027732378105E-06  1.005840790370E-05  1.145178123934E-05  1.209652134712E-05
  1.198928390497E-05  1.121398285497E-05  9.916709633717E-06  8.279037976111E-06
  6.492298175172E-06  4.735045718311E-06  3.155425374301E-06  1.859496580721E-06
  9.059018462994E-07  3.065927144114E-07  3.274075651228E-08  2.450825246353E-08
  2.030743181134E-07  4.832280790224E-07  7.849505950411E-07  1.042689668995E-06
  1.211445272747E-06  1.269272373174E-06  1.216308742856E-06  1.070884081579E-06
  8.636076987811E-07  6.305248305030E-07  4.064571562519E-07  2.195058901425E-07
  8.742395677272E-08  1.620459277734E-08  0.000000000000E+00  0.000000000000E+00
  0.000000000000E+00  0.000000000000E+00  0.000000000000E+00  0.000000000000E+00
  0.000000000000E+00  0.000000000000E+00  0.000000000000E+00  0.000000000000E+00
  0.000000000000E+00  0.000000000000E+00  0.000000000000E+00  0.000000000000E+00
  0.000000000000E+00  0.000000000000E+00  0.000000000000E+00  0.000000000000E+00
  0.000000000000E+00  0.000000000000E+00  0.000000000000E+00  0.000000000000E+00
  0.000000000000E+00  0.000000000000E+00  0.000000000000E+00  0.000000000000E+00
  0.000000000000E+00  0.000000000000E+00  0.000000000000E+00  0.000000000000E+00
  0.000000000000E+00  0.000000000000E+00  0.000000000000E+00  0.000000000000E+00
  0.000000000000E+00  0.000000000000E+00  0.000000000000E+00  0.000000000000E+00
  0.000000000000E+00  0.000000000000E+00  0.000000000000E+00  0.000000000000E+00
  0.000000000000E+00  0.000000000000E+00  0.000000000000E+00  0.000000000000E+00
  0.000000000000E+00  0.000000000000E+00
</data>
</radfunc>
</pseudocore-charge>
<semilocal-potentials set="scalar_relativistic">
<slps n="3" l="s" rc="1.45375689512" eref="-0.634163485904">
<radfunc>
<data npts="290">
  5.027985930399E+01  5.025066237727E+01  5.016354134009E+01  5.001872068311E+01
  4.980740592057E+01  4.953980598155E+01  4.920200980111E+01  4.881961675305E+01
  4.839518230579E+01  4.790746133172E+01  4.736684195045E+01  4.678991315941E+01
  4.610708807273E+01  4.541026718014E+01  4.473024625239E+01  4.396617382757E+01
  4.311080860849E+01  4.232321997603E+01  4.146362424306E+01  4.052867072691E+01
  3.951556803027E+01  3.864740219618E+01  3.772723278268E+01  3.675483778861E+01
  3.573047874995E+01  3.465495266229E+01  3.352963720544E+01  3.265415204182E+01
  3.175284596251E+01  3.082700158937E+01  2.987810688418E+01  2.890785172897E+01
  2.791812114336E+01  2.691098502625E+01  2.588868439790E+01  2.485361421617E+01
  2.380830294301E+01  2.275538914086E+01  2.205056488193E+01  2.134439238998E+01
  2.063770061444E+01  1.993132171207E+01  1.922608698913E+01  1.852282281723E+01
  1.782234656291E+01  1.712546257142E+01  1.643295824514E+01  1.574560025651E+01
  1.506413093409E+01  1.438926485913E+01  1.372168570770E+01  1.306204337158E+01
  1.241095138839E+01  1.176898470865E+01  1.113667782457E+01  1.051452328246E+01
  9.902970597220E+00  9.302425584336E+00  8.713250121434E+00  8.135762347901E+00
  7.570237307571E+00  7.016908035611E+00  6.475967086567E+00  5.947568496046E+00
  5.431830163356E+00  4.928836636765E+00  4.438642276481E+00  4.198354373667E+00
  3.961274763084E+00  3.727403361882E+00  3.496738910781E+00  3.269279106275E+00
  3.045020735385E+00  2.823959812333E+00  2.606091716544E+00  2.391411331294E+00
  2.179913182227E+00  1.971591575028E+00  1.766440731344E+00  1.564454922150E+00
  1.365628597550E+00  1.169956512090E+00  9.774338445304E-01  7.880563110379E-01
  6.018202706608E-01  4.187228220077E-01  2.387618899385E-01  6.193630112609E-02
 -1.117541526910E-01 -2.823086649060E-01 -4.497253788551E-01 -6.140013683006E-01
 -7.751326347062E-01 -9.331141221889E-01 -1.087939751021E+00 -1.239602470668E+00
 -1.388094332588E+00 -1.533406583650E+00 -1.675529780181E+00 -1.814453922820E+00
 -1.950168611910E+00 -2.082663222988E+00 -2.211927101603E+00 -2.337949776271E+00
 -2.460721188188E+00 -2.580231935771E+00 -2.696473531778E+00 -2.809438670338E+00
 -2.919121500756E+00 -3.025517904584E+00 -3.128625771928E+00 -3.228445272691E+00
 -3.324979117945E+00 -3.418232806332E+00 -3.508214850135E+00 -3.594936975362E+00
 -3.678414290106E+00 -3.758665415316E+00 -3.835712572210E+00 -3.909581620673E+00
 -3.980302043223E+00 -4.047906869563E+00 -4.112432537167E+00 -4.173918684012E+00
 -4.232407870261E+00 -4.287945226604E+00 -4.340578027903E+00 -4.390355191921E+00
 -4.437326704212E+00 -4.481542971697E+00 -4.523054109194E+00 -4.561909165160E+00
 -4.598155295326E+00 -4.631836895659E+00 -4.662994709392E+00 -4.691664926602E+00
 -4.717878298985E+00 -4.741659296997E+00 -4.763025341115E+00 -4.781986143464E+00
 -4.798543199916E+00 -4.812689475637E+00 -4.824409328509E+00 -4.833678714196E+00
 -4.840465713643E+00 -4.844731417978E+00 -4.846431197060E+00 -4.845516366084E+00
 -4.841936249957E+00 -4.835640627840E+00 -4.826582520715E+00 -4.814721263587E+00
 -4.800025781834E+00 -4.782477968555E+00 -4.762076037968E+00 -4.738837709256E+00
 -4.712803057260E+00 -4.684036852010E+00 -4.652630199553E+00 -4.618701293553E+00