<?xml version="1.0" encoding="UTF-8" ?>
<psml version="1.1" energy_unit="hartree" length_unit="bohr"
 uuid="2d0a08f0-be46-11e7-5944-15c6afff173b"
 xmlns="http://esl.cecam.org/PSML/ns/1.1">
<provenance creator="ONCVPSP-3.3.0+psml-3.3.0-73 (scalar-relativistic)"
 date="2017-10-31">
<annotation action="semilocal-pseudopotential-generation"
 action-cont="projectors-generation" />
<input-file name="oncvpsp-input">
<![CDATA[# atsym z nc nv iexc psfile
Bi 83 12 3 4 upf
# n l f
1 0 2.0
2 0 2.0
2 1 6.0
3 0 2.0
3 1 6.0
3 2 10.0
4 0 2.0
4 1 6.0
4 2 10.0
5 0 2.0
5 1 6.0
4 3 14.0
5 2 10.0
6 0 2.0
6 1 3.0
# lmax
2
# l rc ep ncon nbas qcut
0 2.4 0.0 4 7 3.6
1 2.5 0.0 4 7 4.5
2 2.1 0.0 4 7 8.7
# lloc lpopt rc5 dvloc0
4 5 2.0 0.0
# l nproj debl
0 2 2.5
1 2 2.5
2 2 1.2
# icmod fcfact rcfact
3 6.0 1.34
# epsh1 epsh2 depsh
-12.0 12.0 0.02
# rlmax drl
6.0 0.01
 0
]]>
</input-file>
</provenance>
<pseudo-atom-spec atomic-label="Bi" atomic-number="83" z-pseudo="15"
 flavor="Hamann&apos;s oncvpsp" relativity="scalar" spin-dft="no"
 core-corrections="yes">
<annotation pseudo-energy="-71.2015686145" />
<exchange-correlation>
<annotation oncvpsp-xc-code="4" oncvpsp-xc-type="GGA -- Perdew-Burke-Ernzerhof" />
<libxc-info number-of-functionals="2">
<functional name="Perdew, Burke &amp; Ernzerhof (GGA)" type="exchange" id="101" />
<functional name="Perdew, Burke &amp; Ernzerhof (GGA)" type="correlation"
 id="130" />
</libxc-info>
</exchange-correlation>
<valence-configuration total-valence-charge="15">
<shell n="5" l="d" occupation="10" />
<shell n="6" l="s" occupation="2" />
<shell n="6" l="p" occupation="3" />
</valence-configuration>
</pseudo-atom-spec>
<grid npts="457">
<annotation type="sampled from oncvpsp log grid"
 recipe="r(i:1..N) = r1*exp(a*(i-1)) + r=0; resampled"
 recipe-cont="r1: scale; a: step" scale="0.602409638554E-05"
 step="0.119285708653E-01" delta="0.500000000000E-02" rmax="44.0626872033" />
<grid-data>
  0.000000000000E+00  5.031540399417E-03  1.005010708672E-02  1.507676322460E-02
  2.031519180407E-02  2.548300647672E-02  3.084173950167E-02  3.601517482036E-02
  4.106493736582E-02  4.626752728992E-02  5.151110926994E-02  5.666892867097E-02
  6.234320173317E-02  6.777237261092E-02  7.280073515825E-02  7.820217642384E-02
  8.400437693564E-02  8.916706618068E-02  9.464704080075E-02  1.004638003250E-01
  1.066380426725E-01  1.118495432830E-01  1.173157347894E-01  1.230490641731E-01
  1.290625867116E-01  1.353699957055E-01  1.419856536601E-01  1.471587203454E-01
  1.525202611353E-01  1.580771428440E-01  1.638364824694E-01  1.698056563082E-01
  1.759923094030E-01  1.824043653339E-01  1.890500363665E-01  1.959378339698E-01
  2.030765797176E-01  2.104754165862E-01  2.155571350442E-01  2.207615465127E-01
  2.260916132918E-01  2.315503692031E-01  2.371409213171E-01  2.428664517214E-01
  2.487302193317E-01  2.547355617473E-01  2.608858971501E-01  2.671847262509E-01
  2.736356342815E-01  2.802422930356E-01  2.870084629587E-01  2.939379952883E-01
  3.010348342466E-01  3.083030192846E-01  3.157466873822E-01  3.233700754024E-01
  3.311775225029E-01  3.391734726062E-01  3.473624769288E-01  3.557491965718E-01
  3.643384051738E-01  3.731349916283E-01  3.821439628662E-01  3.913704467057E-01
  4.008196947709E-01  4.104970854815E-01  4.204081271133E-01  4.254530246387E-01
  4.305584609344E-01  4.357251624656E-01  4.409538644152E-01  4.462453107881E-01
  4.516002545176E-01  4.570194575718E-01  4.625036910627E-01  4.680537353554E-01
  4.736703801797E-01  4.793544247418E-01  4.851066778387E-01  4.909279579728E-01
  4.968190934685E-01  5.027809225901E-01  5.088142936612E-01  5.149200651851E-01
  5.210991059673E-01  5.273522952389E-01  5.336805227818E-01  5.400846890552E-01
  5.465657053239E-01  5.531244937877E-01  5.597619877132E-01  5.664791315658E-01
  5.732768811445E-01  5.801562037183E-01  5.871180781629E-01  5.941634951008E-01
  6.012934570421E-01  6.085089785266E-01  6.158110862689E-01  6.232008193041E-01
  6.306792291358E-01  6.382473798854E-01  6.459063484440E-01  6.536572246253E-01
  6.615011113208E-01  6.694391246567E-01  6.774723941526E-01  6.856020628824E-01
  6.938292876370E-01  7.021552390886E-01  7.105811019577E-01  7.191080751812E-01
  7.277373720834E-01  7.364702205484E-01  7.453078631950E-01  7.542515575533E-01
  7.633025762439E-01  7.724622071589E-01  7.817317536448E-01  7.911125346885E-01
  8.006058851048E-01  8.102131557260E-01  8.199357135947E-01  8.297749421579E-01
  8.397322414638E-01  8.498090283613E-01  8.600067367017E-01  8.703268175421E-01
  8.807707393526E-01  8.913399882248E-01  9.020360680835E-01  9.128605009005E-01
  9.238148269113E-01  9.349006048343E-01  9.461194120923E-01  9.574728450374E-01
  9.689625191778E-01  9.805900694080E-01  9.923571502409E-01  1.004265436044E+00
  1.016316621276E+00  1.028512420732E+00  1.040854569780E+00  1.053344824618E+00
  1.065984962513E+00  1.078776782063E+00  1.091722103448E+00  1.104822768689E+00
  1.118080641914E+00  1.131497609617E+00  1.145075580932E+00  1.158816487903E+00
  1.172722285758E+00  1.186794953187E+00  1.201036492625E+00  1.215448930537E+00
  1.230034317703E+00  1.244794729516E+00  1.259732266270E+00  1.274849053465E+00
  1.290147242107E+00  1.305629009012E+00  1.321296557120E+00  1.337152115806E+00
  1.353197941195E+00  1.369436316490E+00  1.385869552288E+00  1.402499986915E+00
  1.419329986758E+00  1.436361946599E+00  1.453598289958E+00  1.471041469438E+00
  1.488693967071E+00  1.506558294676E+00  1.524636994212E+00  1.542932638143E+00
  1.561447829800E+00  1.580185203758E+00  1.599147426203E+00  1.618337195317E+00
  1.637757241661E+00  1.657410328561E+00  1.677299252504E+00  1.697426843534E+00
  1.717795965656E+00  1.738409517244E+00  1.759270431451E+00  1.780381676629E+00
  1.801746256748E+00  1.823367211829E+00  1.845247618371E+00  1.867390589792E+00
  1.889799276869E+00  1.912476868191E+00  1.935426590610E+00  1.958651709697E+00
  1.982155530213E+00  2.005941396576E+00  2.030012693335E+00  2.054372845655E+00
  2.079025319803E+00  2.103973623640E+00  2.129221307124E+00  2.154771962810E+00
  2.180629226363E+00  2.206796777080E+00  2.233278338405E+00  2.260077678465E+00
  2.287198610607E+00  2.314644993934E+00  2.342420733862E+00  2.370529782668E+00
  2.398976140060E+00  2.427763853741E+00  2.456897019986E+00  2.486379784225E+00
  2.516216341636E+00  2.546410937736E+00  2.576967868988E+00  2.607891483416E+00
  2.639186181217E+00  2.670856415392E+00  2.702906692377E+00  2.735341572685E+00
  2.768165671557E+00  2.801383659616E+00  2.835000263531E+00  2.869020266694E+00
  2.903448509894E+00  2.938289892013E+00  2.973549370717E+00  3.009231963166E+00
  3.045342746724E+00  3.081886859684E+00  3.118869502001E+00  3.156295936025E+00
  3.194171487257E+00  3.232501545104E+00  3.271291563645E+00  3.310547062409E+00
  3.350273627158E+00  3.390476910684E+00  3.431162633612E+00  3.472336585215E+00
  3.514004624238E+00  3.556172679729E+00  3.598846751885E+00  3.642032912908E+00
  3.685737307863E+00  3.729966155557E+00  3.774725749424E+00  3.820022458417E+00
  3.865862727918E+00  3.912253080653E+00  3.959200117621E+00  4.006710519032E+00
  4.054791045261E+00  4.103448537804E+00  4.152689920258E+00  4.202522199301E+00
  4.252952465692E+00  4.303987895281E+00  4.355635750024E+00  4.407903379024E+00
  4.460798219573E+00  4.514327798207E+00  4.568499731786E+00  4.623321728567E+00
  4.678801589310E+00  4.734947208382E+00  4.791766574882E+00  4.849267773781E+00
  4.907458987066E+00  4.966348494911E+00  5.025944676850E+00  5.086256012972E+00
  5.147291085128E+00  5.209058578150E+00  5.271567281087E+00  5.334826088460E+00
  5.398844001522E+00  5.463630129540E+00  5.529193691095E+00  5.595544015388E+00
  5.662690543572E+00  5.730642830095E+00  5.799410544056E+00  5.869003470585E+00
  5.939431512232E+00  6.010704690379E+00  6.082833146664E+00  6.155827144423E+00
  6.229697070157E+00  6.304453434998E+00  6.380106876218E+00  6.456668158733E+00
  6.534148176638E+00  6.612557954757E+00  6.691908650215E+00  6.772211554017E+00
  6.853478092665E+00  6.935719829777E+00  7.018948467735E+00  7.103175849347E+00
  7.188413959540E+00  7.274674927054E+00  7.361971026179E+00  7.450314678493E+00
  7.539718454635E+00  7.630195076090E+00  7.721757417004E+00  7.814418506008E+00
  7.908191528080E+00  8.003089826417E+00  8.099126904334E+00  8.196316427186E+00
  8.294672224312E+00  8.394208291004E+00  8.494938790496E+00  8.596878055982E+00
  8.700040592653E+00  8.804441079765E+00  8.910094372722E+00  9.017015505195E+00
  9.125219691257E+00  9.234722327553E+00  9.345538995483E+00  9.457685463429E+00
  9.571177688990E+00  9.686031821258E+00  9.802264203113E+00  9.919891373550E+00
  1.003893007003E+01  1.015939723087E+01  1.028130999764E+01  1.040468571762E+01
  1.052954194623E+01  1.065589644958E+01  1.078376720698E+01  1.091317241346E+01
  1.104413048242E+01  1.117666004821E+01  1.131077996879E+01  1.144650932842E+01
  1.158386744036E+01  1.172287384964E+01  1.186354833584E+01  1.200591091587E+01
  1.214998184686E+01  1.229578162902E+01  1.244333100857E+01  1.259265098067E+01
  1.274376279244E+01  1.289668794595E+01  1.305144820130E+01  1.320806557971E+01
  1.336656236667E+01  1.352696111507E+01  1.368928464845E+01  1.385355606423E+01
  1.401979873700E+01  1.418803632185E+01  1.435829275771E+01  1.453059227080E+01
  1.470495937805E+01  1.488141889059E+01  1.505999591728E+01  1.524071586828E+01
  1.542360445870E+01  1.560868771221E+01  1.579599196475E+01  1.598554386833E+01
  1.617737039475E+01  1.637149883949E+01  1.656795682556E+01  1.676677230747E+01
  1.696797357516E+01  1.717158925806E+01  1.737764832916E+01  1.758618010911E+01
  1.779721427042E+01  1.801078084166E+01  1.822691021176E+01  1.844563313430E+01
  1.866698073191E+01  1.889098450070E+01  1.911767631470E+01  1.934708843048E+01
  1.957925349165E+01  1.981420453355E+01  2.005197498795E+01  2.029259868780E+01
  2.053610987206E+01  2.078254319052E+01  2.103193370881E+01  2.128431691331E+01
  2.153972871627E+01  2.179820546087E+01  2.205978392640E+01  2.232450133352E+01
  2.259239534952E+01  2.286350409371E+01  2.313786614284E+01  2.341552053655E+01
  2.369650678299E+01  2.398086486439E+01  2.426863524276E+01  2.455985886567E+01
  2.485457717206E+01  2.515283209812E+01  2.545466608330E+01  2.576012207630E+01
  2.606924354122E+01  2.638207446371E+01  2.669865935728E+01  2.701904326956E+01
  2.734327178880E+01  2.767139105026E+01  2.800344774287E+01  2.833948911578E+01
  2.867956298517E+01  2.902371774099E+01  2.937200235389E+01  2.972446638213E+01
  3.008115997872E+01  3.044213389846E+01  3.080743950524E+01  3.117712877931E+01
  3.155125432466E+01  3.192986937655E+01  3.231302780907E+01  3.270078414278E+01
  3.309319355250E+01  3.349031187513E+01  3.389219561763E+01  3.429890196504E+01
  3.471048878862E+01  3.512701465408E+01  3.554853882993E+01  3.597512129589E+01
  3.640682275144E+01  3.684370462446E+01  3.728582907995E+01  3.773325902891E+01
  3.818605813726E+01  3.864429083490E+01  3.910802232492E+01  3.957731859282E+01
  4.005224641594E+01  4.053287337293E+01  4.101926785340E+01  4.151149906764E+01
  4.200963705646E+01  4.251375270113E+01  4.302391773355E+01  4.354020474635E+01
  4.406268720331E+01
</grid-data>
</grid>
<valence-charge total-charge="15" is-unscreening-charge="yes"
 rescaled-to-z-pseudo="no">
<radfunc>
<data npts="457">
  1.096594341677E-02  1.096987107530E-02  1.098298410332E-02  1.100943729835E-02
  1.105860903310E-02  1.113922884798E-02  1.127101903784E-02  1.146187836841E-02
  1.172738248716E-02  1.210500624715E-02  1.261835362057E-02  1.328163484831E-02
  1.422947428573E-02  1.539002302679E-02  1.672320314516E-02  1.847382617118E-02
  2.077439662058E-02  2.323592504135E-02  2.632888075192E-02  3.021562055240E-02
  3.509968566326E-02  3.989423716260E-02  4.564814182975E-02  5.255151030140E-02
  6.083110674518E-02  7.075704075484E-02  8.265055319913E-02  9.308879356776E-02
  1.050332863921E-01  1.186954837684E-01  1.343149391709E-01  1.521626537037E-01
  1.725447259698E-01  1.958063085538E-01  2.223358661965E-01  2.525697202106E-01
  2.869968500081E-01  3.261639051311E-01  3.552067991973E-01  3.868229722167E-01
  4.212237101945E-01  4.586350803267E-01  4.992985669868E-01  5.434716672206E-01
  5.914284304293E-01  6.434599245045E-01  6.998746080240E-01  7.609985852270E-01
  8.271757173593E-01  8.987675606369E-01  9.761530975231E-01  1.059728224301E+00
  1.149904954082E+00  1.247110290487E+00  1.351784723361E+00  1.464380294127E+00
  1.585358174881E+00  1.715185702248E+00  1.854332804551E+00  2.003267759201E+00
  2.162452216697E+00  2.332335428494E+00  2.513347618695E+00  2.705892444321E+00
  2.910338496360E+00  3.127009804317E+00  3.356175321069E+00  3.475509576427E+00
  3.598037383023E+00  3.723771565469E+00  3.852719163363E+00  3.984880987679E+00
  4.120251164083E+00  4.258816664188E+00  4.400556825920E+00  4.545442864358E+00
  4.693437374619E+00  4.844493828572E+00  4.998556067370E+00  5.155557792062E+00
  5.315422054755E+00  5.478060753078E+00  5.643374130946E+00  5.811250288900E+00
  5.981564707582E+00  6.154179788162E+00  6.328944413832E+00  6.505693536757E+00
  6.684247795139E+00  6.864413165321E+00  7.045980654116E+00  7.228726036781E+00
  7.412409646280E+00  7.596776219676E+00  7.781554807648E+00  7.966458753292E+00
  8.151185746413E+00  8.335417959609E+00  8.518822272399E+00  8.701050589618E+00
  8.881740260139E+00  9.060514601816E+00  9.236983538224E+00  9.410744352437E+00
  9.581382562610E+00  9.748472923581E+00  9.911580558073E+00  1.007026222028E+01
  1.022406769375E+01  1.037254132463E+01  1.051522368986E+01  1.065165339931E+01
  1.078136902886E+01  1.090391118045E+01  1.101882466346E+01  1.112566079005E+01
  1.122397977558E+01  1.131335323315E+01  1.139336674986E+01  1.146362253015E+01
  1.152374208980E+01  1.157336898247E+01  1.161217153859E+01  1.163984559459E+01
  1.165611718920E+01  1.166074520141E+01  1.165352390384E+01  1.163428540376E+01
  1.160290194337E+01  1.155928802999E+01  1.150340236698E+01  1.143524955581E+01
  1.135488154052E+01  1.126239876662E+01  1.115795102774E+01  1.104173797543E+01
  1.091400926950E+01  1.077506434964E+01  1.062525181180E+01  1.046496837724E+01
  1.029465744589E+01  1.011480723092E+01  9.925948475938E+00  9.728651762237E+00
  9.523524418592E+00  9.311207052342E+00  9.092369726129E+00  8.867707810552E+00
  8.637937548680E+00  8.403791373703E+00  8.166013026043E+00  7.925352520655E+00
  7.682561019119E+00  7.438385664121E+00  7.193564436186E+00  6.948821093685E+00
  6.704860257435E+00  6.462362700264E+00  6.221980899987E+00  5.984334911125E+00
  5.750008606519E+00  5.519546334807E+00  5.293450033518E+00  5.072176830618E+00
  4.856137159577E+00  4.645693404844E+00  4.441159086003E+00  4.242798580159E+00
  4.050827373347E+00  3.865412823347E+00  3.686675408198E+00  3.514690427347E+00
  3.349490115738E+00  3.191066125469E+00  3.039372325054E+00  2.894327862810E+00
  2.755820438617E+00  2.623709727177E+00  2.497830895960E+00  2.377998162235E+00
  2.264008335772E+00  2.155644296951E+00  2.052678363998E+00  1.954875507620E+00
  1.861996376518E+00  1.773800102720E+00  1.690046861474E+00  1.610500166270E+00
  1.534928885455E+00  1.463108972564E+00  1.394824908045E+00  1.329870855173E+00
  1.268051537746E+00  1.209182851434E+00  1.153092224409E+00  1.099618746055E+00
  1.048613085055E+00  9.999372200192E-01  9.534640069778E-01  9.090766085030E-01
  8.666678089951E-01  8.261392398404E-01  7.874004778659E-01  7.503679113300E-01
  7.149636377290E-01  6.811149574894E-01  6.487538123339E-01  6.178162350959E-01
  5.882418079641E-01  5.599731431982E-01  5.329553994888E-01  5.071358459335E-01
  4.824634841039E-01  4.588887369263E-01  4.363633228698E-01  4.148406524013E-01
  3.942764800318E-01  3.746288647389E-01  3.558578919059E-01  3.379256596774E-01
  3.207961632621E-01  3.044351768115E-01  2.888101509156E-01  2.738901113845E-01
  2.596455636978E-01  2.460484025234E-01  2.330718263655E-01  2.206902572766E-01
  2.088792655322E-01  1.976154991415E-01  1.868766180440E-01  1.766412328175E-01
  1.668888477112E-01  1.575998078020E-01  1.487552500669E-01  1.403370581543E-01
  1.323278206404E-01  1.247107925495E-01  1.174698599263E-01  1.105895072452E-01
  1.040547874542E-01  9.785129445074E-02  9.196513780068E-02  8.638291951747E-02
  8.109171272861E-02  7.607904206701E-02  7.133286563467E-02  6.684155839666E-02
  6.259389687339E-02  5.857904500683E-02  5.478654110101E-02  5.120628570697E-02
  4.782853038439E-02  4.464386723904E-02  4.164321915861E-02  3.881783067340E-02
  3.615925937374E-02  3.365936782124E-02  3.131031589529E-02  2.910455352020E-02
  2.703481372197E-02  2.509410596676E-02  2.327570973646E-02  2.157316829943E-02
  1.998028263757E-02  1.849110549403E-02  1.709993550876E-02  1.580131141253E-02
  1.459000625364E-02  1.346102163476E-02  1.240958194141E-02  1.143112854713E-02
  1.052131398414E-02  9.675996072133E-03  8.891232001230E-03  8.163272368666E-03
  7.488555171770E-03  6.863699762770E-03  6.285500773394E-03  5.750922019417E-03
  5.257090397087E-03  4.801289784768E-03  4.380954964158E-03  3.993665576107E-03
  3.637140126385E-03  3.309230056734E-03  3.007913896273E-03  2.731291507739E-03
  2.477578442313E-03  2.245100415762E-03  2.032287917555E-03  1.837670963300E-03
  1.659873999542E-03  1.497610968528E-03  1.349680539116E-03  1.214961508533E-03
  1.092408378278E-03  9.810471060865E-04  8.799710345339E-04  7.883369956791E-04
  7.053615899894E-04  6.303176368318E-04  5.625307929351E-04  5.013763345160E-04
  4.462760981760E-04  3.966955752370E-04  3.521411538692E-04  3.121575031843E-04
  2.763250933855E-04  2.442578460922E-04  2.156009090579E-04  1.900285496692E-04
  1.672421618285E-04  1.469683810745E-04  1.289573030613E-04  1.129808007916E-04
  9.883093627051E-05  8.631846250178E-05  7.527141198826E-05  6.553376811172E-05
  5.696421595664E-05  4.943496930510E-05  4.283067066636E-05  3.704736131759E-05
  3.199151842333E-05  2.757915637392E-05  2.373498954111E-05  2.039165369518E-05
  1.748898336600E-05  1.497334246388E-05  1.279700550691E-05  1.091758683332E-05
  9.297515211263E-06  7.903551296778E-06  6.706345434115E-06  5.680033342456E-06
  4.801867289282E-06  4.051880413784E-06  3.412581933290E-06  2.868681041518E-06
  2.406837388836E-06  2.015436120998E-06  1.684385543148E-06  1.404935569397E-06
  1.169515214112E-06  9.715874782087E-07  8.055200815034E-07  6.664705895635E-07
  5.502845798790E-07  4.534055867720E-07  3.727956567143E-07  3.058654350824E-07
  2.504127914076E-07  2.045690725137E-07  1.667521512991E-07  1.356255131028E-07
  1.100626914656E-07  8.911643058148E-08  7.199201282157E-08  5.802424643518E-08
  4.665766097259E-08  3.742950624723E-08  2.995519490747E-08  2.391586909178E-08
  1.904780838410E-08  1.513342957219E-08  1.199365875096E-08  9.481483322563E-09
  7.476515640812E-09  5.880421645917E-09  4.613087046319E-09  3.609410631824E-09
  2.816629342438E-09  2.192092956417E-09  1.701417875232E-09  1.316959637490E-09
  1.016552641976E-09  7.824732443032E-10  6.005890429013E-10  4.596629082297E-10
  3.507852429790E-10  2.669121894474E-10  2.024911120820E-10  1.531577581177E-10
  1.154921084454E-10  8.682213751315E-11  6.506656110056E-11  4.860921342862E-11
  3.619900344269E-11  2.687049191425E-11  1.988103901926E-11  1.466122464246E-11
  1.077586529848E-11  7.893463273231E-12  5.762343352404E-12  4.192075641885E-12
  3.039062498172E-12  2.195394467924E-12  1.580263637582E-12  1.133370676643E-12
  8.098806029985E-13  5.765772977138E-13  4.089425173363E-13  2.889452812777E-13
  2.033750804868E-13  1.425898422515E-13  9.957901706390E-14  6.926516921741E-14
  4.798538101598E-14  3.310769042748E-14  2.274853110634E-14  1.556541660683E-14
  1.060545169295E-14  7.195093929754E-15  4.860267982263E-15  3.268719943352E-15
  2.188597909154E-15  1.458820165102E-15  9.679691211184E-16  6.393245561023E-16
  4.202979625309E-16  2.750076563552E-16  1.790849843124E-16  1.160580936830E-16
  7.484593855568E-17  4.802992908681E-17  3.066765839170E-17  1.948264214198E-17
  1.231366034716E-17  7.742333766013E-18  4.842558246943E-18  3.012787459589E-18
  1.864339061626E-18  1.147402477136E-18  7.022835147246E-19  4.274505375878E-19
  2.587059196531E-19  1.556839257544E-19  9.314662382285E-20  5.540441972746E-20
  3.275985908242E-20  0.000000000000E+00  0.000000000000E+00  0.000000000000E+00
  0.000000000000E+00  0.000000000000E+00  0.000000000000E+00  0.000000000000E+00
  0.000000000000E+00  0.000000000000E+00  0.000000000000E+00  0.000000000000E+00
  0.000000000000E+00  0.000000000000E+00  0.000000000000E+00  0.000000000000E+00
  0.000000000000E+00
</data>
</radfunc>
</valence-charge>
<pseudocore-charge matching-radius="1.01631662128"
 number-of-continuous-derivatives="4">
<annotation model-charge-form="Teter function with specified parameters" />
<radfunc>
<data npts="290">
  6.429039626678E+01  6.428762367334E+01  6.427933513863E+01  6.426550594432E+01
  6.424521151208E+01  6.421931266482E+01  6.418629853004E+01  6.414848567075E+01
  6.410595788411E+01  6.405634864965E+01  6.400041100370E+01  6.393958708175E+01
  6.386604510930E+01  6.378919972511E+01  6.371239392214E+01  6.362387573393E+01
  6.352187818255E+01  6.342512957701E+01  6.331628903366E+01  6.319386882685E+01
  6.305620452752E+01  6.293385426009E+01  6.279950983421E+01  6.265202368910E+01
  6.249014439889E+01  6.231250853113E+01  6.211763214438E+01  6.195919540257E+01
  6.178942499951E+01  6.160754373388E+01  6.141272626525E+01  6.120409694287E+01
  6.098072767371E+01  6.074163585976E+01  6.048578244056E+01  6.021207008298E+01
  5.991934156780E+01  5.960637843060E+01  5.938586499980E+01  5.915539547318E+01
  5.891456237386E+01  5.866294576780E+01  5.840011333298E+01  5.812562048963E+01
  5.783901059903E+01  5.753981523868E+01  5.722755456250E+01  5.690173775504E+01
  5.656186358965E+01  5.620742110116E+01  5.583789038401E+01  5.545274352798E+01
  5.505144570375E+01  5.463345641173E+01  5.419823090779E+01  5.374522182033E+01
  5.327388097370E+01  5.278366143317E+01  5.227401978726E+01  5.174441868331E+01
  5.119432963226E+01  5.062323609835E+01  5.003063688935E+01  4.941604986200E+01
  4.877901595639E+01  4.811910357200E+01  4.743591329578E+01  4.708547417775E+01
  4.672908299097E+01  4.636670118773E+01  4.599829325209E+01  4.562382689057E+01
  4.524327322834E+01  4.485660701127E+01  4.446380681335E+01  4.406485524963E+01
  4.365973919447E+01  4.324845000489E+01  4.283098374886E+01  4.240734143839E+01
  4.197752926696E+01  4.154155885122E+01  4.109944747644E+01  4.065121834547E+01
  4.019690083072E+01  3.973653072866E+01  3.927015051650E+01  3.879780961024E+01
  3.831956462370E+01  3.783547962774E+01  3.734562640897E+01  3.685008472719E+01
  3.634894257072E+01  3.584229640866E+01  3.533025143917E+01  3.481292183274E+01
  3.429043096924E+01  3.376291166779E+01  3.323050640795E+01  3.269336754111E+01
  3.215165749066E+01  3.160554893941E+01  3.105522500286E+01  3.050087938662E+01
  2.994271652644E+01  2.938095170900E+01  2.881581117186E+01  2.824753218049E+01
  2.767636308079E+01  2.710256332492E+01  2.652640346853E+01  2.594816513755E+01
  2.536814096217E+01  2.478663447635E+01  2.420395998047E+01  2.362044236527E+01
  2.303641689501E+01  2.245222894784E+01  2.186823371135E+01  2.128479583163E+01
  2.070228901382E+01  2.012109557257E+01  1.954160593088E+01  1.896421806573E+01
  1.838933689948E+01  1.781737363577E+01  1.724874503926E+01  1.668387265843E+01
  1.612318199138E+01  1.556710159437E+01  1.501606213361E+01  1.447049538087E+01
  1.393083315411E+01  1.339750620450E+01  1.287094305193E+01  1.235156877131E+01
  1.183980373269E+01  1.133606229864E+01  1.084075148286E+01  1.035426957476E+01
  9.877004734941E+00  9.409333567577E+00  8.951619675975E+00  8.504212208281E+00
  8.067444400954E+00  7.641632128182E+00  7.227072465965E+00  6.824042280189E+00
  6.432796848471E+00  6.053568526065E+00  5.686565466503E+00  5.331970408002E+00
  4.989939536937E+00  4.660601439867E+00  4.344056155686E+00  4.040374339440E+00
  3.749596549234E+00  3.471732667334E+00  3.206761466215E+00  2.954630329685E+00
  2.715255138538E+00  2.488520329274E+00  2.274279133395E+00  2.072354003541E+00
  1.882537231353E+00  1.704591760369E+00  1.538252195545E+00  1.383226009099E+00
  1.239194940373E+00  1.105816585222E+00  9.827261682341E-01  8.695384887086E-01
  7.658500289522E-01  6.712412110513E-01  5.852787858796E-01  5.075183357778E-01
  4.375068701117E-01  3.747854908363E-01  3.188921033082E-01  2.693641459538E-01
  2.257413110564E-01  1.875682279309E-01  1.543970791450E-01  1.257901202781E-01
  1.013220740042E-01  8.058237008940E-02  6.317720421931E-02  4.873139043900E-02
  3.688998438937E-02  2.731965745735E-02  1.970980539135E-02  1.377337883067E-02
  9.247427502212E-03  5.893354479630E-03  3.496881792553E-03  1.867733718027E-03
  8.390491699018E-04  2.665396024591E-04  2.741363188422E-05  1.909401916764E-05
  1.577566163580E-04  3.767242250332E-04  6.247509308660E-04  8.642342552094E-04
  1.069393317267E-03  1.224451066852E-03  1.321857495292E-03  1.360588561162E-03
  1.344552414463E-03  1.281130441647E-03  1.179875796058E-03  1.051386571830E-03
  9.063648047031E-04  7.548662486653E-04  6.057396113672E-04  4.662478734928E-04
  3.418587086575E-04  2.361860910254E-04  1.510611354667E-04  8.670723291990E-05
  4.199274933715E-05  1.473402276563E-05  2.022130074605E-06  5.488466923443E-07
  6.910266981648E-06  1.787050437648E-05  3.057250942261E-05  4.268804864033E-05
  5.250397005651E-05  5.894672814560E-05  6.155145208151E-05  6.038535293102E-05
  5.593777023026E-05  4.899052220908E-05  4.048239855183E-05  3.138066382605E-05
  2.257045821972E-05  1.477020633347E-05  8.477855563985E-06  3.949285152700E-06
  1.206889407753E-06  7.345864583652E-08  2.243231718469E-07  1.249475253329E-06
  2.717129264132E-06  4.230899634691E-06  5.474340726113E-06  6.238778771358E-06
  6.432881305853E-06  6.074927787120E-06  5.270946671447E-06  4.183497135493E-06
  2.996710136694E-06  1.883186217456E-06  9.775209716018E-07  3.597542979090E-07
  5.017042185475E-08  0.000000000000E+00  0.000000000000E+00  0.000000000000E+00
  0.000000000000E+00  0.000000000000E+00  0.000000000000E+00  0.000000000000E+00
  0.000000000000E+00  0.000000000000E+00  0.000000000000E+00  0.000000000000E+00
  0.000000000000E+00  0.000000000000E+00  0.000000000000E+00  0.000000000000E+00
  0.000000000000E+00  0.000000000000E+00  0.000000000000E+00  0.000000000000E+00
  0.000000000000E+00  0.000000000000E+00  0.000000000000E+00  0.000000000000E+00
  0.000000000000E+00  0.000000000000E+00  0.000000000000E+00  0.000000000000E+00
  0.000000000000E+00  0.000000000000E+00  0.000000000000E+00  0.000000000000E+00
  0.000000000000E+00  0.000000000000E+00
</data>
</radfunc>
</pseudocore-charge>
<semilocal-potentials set="scalar_relativistic">
<slps n="6" l="s" rc="2.42776385374" eref="-0.532018954554">
<radfunc>
<data npts="290">
  1.003978716469E+01  1.003533623264E+01  1.002203920587E+01  9.999882838575E+00
  9.967434528705E+00  9.926139579594E+00  9.873684198594E+00  9.813857096262E+00
  9.746890527419E+00  9.669198548064E+00  9.582140536971E+00  9.488126765207E+00
  9.375348066638E+00  9.258535150071E+00  9.142822174448E+00  9.010735270098E+00
  8.860197275952E+00  8.719024912073E+00  8.562059632500E+00  8.387809758006E+00
  8.194710571513E+00  8.025570132193E+00  7.842477136642E+00  7.644572773178E+00
  7.430999953486E+00  7.200915113575E+00  6.953501998910E+00  6.756103281425E+00
  6.548216710711E+00  6.329561577192E+00  6.099885958287E+00  5.858971920194E+00
  5.606640938052E+00  5.342759469068E+00  5.067244599214E+00  4.780069670183E+00
  4.481269780075E+00  4.170947039314E+00  3.957746462453E+00  3.739570610934E+00
  3.516505298061E+00  3.288652366584E+00  3.056130059333E+00  2.819073309294E+00
  2.577633941919E+00  2.331980783062E+00  2.082299666666E+00  1.828793337227E+00
  1.571681243105E+00  1.311199217882E+00  1.047599048281E+00  7.811479285057E-01
  5.121278023150E-01  2.408345956330E-01 -3.242265598933E-02 -3.073227792548E-01
 -5.835335270872E-01 -8.607127260512E-01 -1.138509497335E+00 -1.416565540285E+00
 -1.694516466516E+00 -1.971993171902E+00 -2.248623233160E+00 -2.524032315486E+00
 -2.797845577618E+00 -3.069689060913E+00 -3.339191049485E+00 -3.472948760910E+00
 -3.605983389184E+00 -3.738249679386E+00 -3.869702754185E+00 -4.000298149864E+00
 -4.129991851181E+00 -4.258740325003E+00 -4.386500552687E+00 -4.513230061161E+00
 -4.638886952682E+00 -4.763429933266E+00 -4.886818339762E+00 -5.009012165592E+00
 -5.129972085164E+00 -5.249659476971E+00 -5.368036445424E+00 -5.485065841459E+00
 -5.600711281973E+00 -5.714937168159E+00 -5.827708702823E+00 -5.938991906779E+00
 -6.048753634414E+00 -6.156961588573E+00 -6.263584334856E+00 -6.368591315515E+00
 -6.471952863079E+00 -6.573640213895E+00 -6.673625521770E+00 -6.771881871906E+00
 -6.868383295341E+00 -6.963104784109E+00 -7.056022307357E+00 -7.147112828641E+00
 -7.236354324642E+00 -7.323725805533E+00 -7.409207337244E+00 -7.492780065826E+00
 -7.574426244141E+00 -7.654129261054E+00 -7.731873673300E+00 -7.807645240124E+00
 -7.881430960812E+00 -7.953219115089E+00 -8.022999306407E+00 -8.090762507955E+00
 -8.156501111249E+00 -8.220208977006E+00 -8.281881487936E+00 -8.341515602987E+00
 -8.399109912466E+00 -8.454664693381E+00 -8.508181964201E+00 -8.559665538197E+00
 -8.609121074404E+00 -8.656556125157E+00 -8.701980179146E+00 -8.745404698841E+00
 -8.786843151141E+00 -8.826311030094E+00 -8.863825870549E+00 -8.899407251643E+00
 -8.933076789073E+00 -8.964858115178E+00 -8.994776845941E+00 -9.022860534084E+00
 -9.049138607564E+00 -9.073642292810E+00 -9.096404522155E+00 -9.117459824970E+00
 -9.136844202056E+00 -9.154594982897E+00 -9.170750665362E+00 -9.185350737491E+00
 -9.198435480949E+00 -9.210045755741E+00 -9.220222765748E+00 -9.229007804678E+00
 -9.236441981992E+00 -9.242565928482E+00 -9.247419481255E+00 -9.251041348087E+00
 -9.253468751374E+00 -9.254737052308E+00 -9.254879356441E+00 -9.253926102477E+00