<?xml version="1.0" encoding="UTF-8" ?>
<psml version="1.1" energy_unit="hartree" length_unit="bohr"
 uuid="75ff2e60-be6d-11e7-6297-144a4b9b8a31"
 xmlns="http://esl.cecam.org/PSML/ns/1.1">
<provenance creator="ONCVPSP-3.3.0+psml-3.3.0-73 (scalar-relativistic)"
 date="2017-10-31">
<annotation action="semilocal-pseudopotential-generation"
 action-cont="projectors-generation" />
<input-file name="oncvpsp-input">
<![CDATA[# atsym z nc nv iexc psfile
Bi 83 10 5 4 upf
# n l f
1 0 2.0
2 0 2.0
2 1 6.0
3 0 2.0
3 1 6.0
3 2 10.0
4 0 2.0
4 1 6.0
4 2 10.0
4 3 14.0
5 0 2.0
5 1 6.0
5 2 10.0
6 0 2.0
6 1 3.0
# lmax
2
# l rc ep ncon nbas qcut
0 1.4 0.0 4 8 9.0
1 1.5 0.0 4 8 8.4
2 1.4 0.0 4 8 9.0
# lloc lpopt rc5 dvloc0
4 5 1.3 0.0
# l nproj debl
0 2 1.0
1 2 1.0
2 2 2.0
# icmod fcfact rcfact
3 6.0 1.34
# epsh1 epsh2 depsh
-12.0 12.0 0.02
# rlmax drl
6.0 0.01
 0
]]>
</input-file>
</provenance>
<pseudo-atom-spec atomic-label="Bi" atomic-number="83" z-pseudo="23"
 flavor="Hamann&apos;s oncvpsp" relativity="scalar" spin-dft="no"
 core-corrections="yes">
<annotation pseudo-energy="-217.444948181" />
<exchange-correlation>
<annotation oncvpsp-xc-code="4" oncvpsp-xc-type="GGA -- Perdew-Burke-Ernzerhof" />
<libxc-info number-of-functionals="2">
<functional name="Perdew, Burke &amp; Ernzerhof (GGA)" type="exchange" id="101" />
<functional name="Perdew, Burke &amp; Ernzerhof (GGA)" type="correlation"
 id="130" />
</libxc-info>
</exchange-correlation>
<valence-configuration total-valence-charge="23">
<shell n="5" l="s" occupation="2" />
<shell n="5" l="p" occupation="6" />
<shell n="5" l="d" occupation="10" />
<shell n="6" l="s" occupation="2" />
<shell n="6" l="p" occupation="3" />
</valence-configuration>
</pseudo-atom-spec>
<grid npts="457">
<annotation type="sampled from oncvpsp log grid"
 recipe="r(i:1..N) = r1*exp(a*(i-1)) + r=0; resampled"
 recipe-cont="r1: scale; a: step" scale="0.602409638554E-05"
 step="0.119285708653E-01" delta="0.500000000000E-02" rmax="44.0626872033" />
<grid-data>
  0.000000000000E+00  5.031540399417E-03  1.005010708672E-02  1.507676322460E-02
  2.031519180407E-02  2.548300647672E-02  3.084173950167E-02  3.601517482036E-02
  4.106493736582E-02  4.626752728992E-02  5.151110926994E-02  5.666892867097E-02
  6.234320173317E-02  6.777237261092E-02  7.280073515825E-02  7.820217642384E-02
  8.400437693564E-02  8.916706618068E-02  9.464704080075E-02  1.004638003250E-01
  1.066380426725E-01  1.118495432830E-01  1.173157347894E-01  1.230490641731E-01
  1.290625867116E-01  1.353699957055E-01  1.419856536601E-01  1.471587203454E-01
  1.525202611353E-01  1.580771428440E-01  1.638364824694E-01  1.698056563082E-01
  1.759923094030E-01  1.824043653339E-01  1.890500363665E-01  1.959378339698E-01
  2.030765797176E-01  2.104754165862E-01  2.155571350442E-01  2.207615465127E-01
  2.260916132918E-01  2.315503692031E-01  2.371409213171E-01  2.428664517214E-01
  2.487302193317E-01  2.547355617473E-01  2.608858971501E-01  2.671847262509E-01
  2.736356342815E-01  2.802422930356E-01  2.870084629587E-01  2.939379952883E-01
  3.010348342466E-01  3.083030192846E-01  3.157466873822E-01  3.233700754024E-01
  3.311775225029E-01  3.391734726062E-01  3.473624769288E-01  3.557491965718E-01
  3.643384051738E-01  3.731349916283E-01  3.821439628662E-01  3.913704467057E-01
  4.008196947709E-01  4.104970854815E-01  4.204081271133E-01  4.254530246387E-01
  4.305584609344E-01  4.357251624656E-01  4.409538644152E-01  4.462453107881E-01
  4.516002545176E-01  4.570194575718E-01  4.625036910627E-01  4.680537353554E-01
  4.736703801797E-01  4.793544247418E-01  4.851066778387E-01  4.909279579728E-01
  4.968190934685E-01  5.027809225901E-01  5.088142936612E-01  5.149200651851E-01
  5.210991059673E-01  5.273522952389E-01  5.336805227818E-01  5.400846890552E-01
  5.465657053239E-01  5.531244937877E-01  5.597619877132E-01  5.664791315658E-01
  5.732768811445E-01  5.801562037183E-01  5.871180781629E-01  5.941634951008E-01
  6.012934570421E-01  6.085089785266E-01  6.158110862689E-01  6.232008193041E-01
  6.306792291358E-01  6.382473798854E-01  6.459063484440E-01  6.536572246253E-01
  6.615011113208E-01  6.694391246567E-01  6.774723941526E-01  6.856020628824E-01
  6.938292876370E-01  7.021552390886E-01  7.105811019577E-01  7.191080751812E-01
  7.277373720834E-01  7.364702205484E-01  7.453078631950E-01  7.542515575533E-01
  7.633025762439E-01  7.724622071589E-01  7.817317536448E-01  7.911125346885E-01
  8.006058851048E-01  8.102131557260E-01  8.199357135947E-01  8.297749421579E-01
  8.397322414638E-01  8.498090283613E-01  8.600067367017E-01  8.703268175421E-01
  8.807707393526E-01  8.913399882248E-01  9.020360680835E-01  9.128605009005E-01
  9.238148269113E-01  9.349006048343E-01  9.461194120923E-01  9.574728450374E-01
  9.689625191778E-01  9.805900694080E-01  9.923571502409E-01  1.004265436044E+00
  1.016316621276E+00  1.028512420732E+00  1.040854569780E+00  1.053344824618E+00
  1.065984962513E+00  1.078776782063E+00  1.091722103448E+00  1.104822768689E+00
  1.118080641914E+00  1.131497609617E+00  1.145075580932E+00  1.158816487903E+00
  1.172722285758E+00  1.186794953187E+00  1.201036492625E+00  1.215448930537E+00
  1.230034317703E+00  1.244794729516E+00  1.259732266270E+00  1.274849053465E+00
  1.290147242107E+00  1.305629009012E+00  1.321296557120E+00  1.337152115806E+00
  1.353197941195E+00  1.369436316490E+00  1.385869552288E+00  1.402499986915E+00
  1.419329986758E+00  1.436361946599E+00  1.453598289958E+00  1.471041469438E+00
  1.488693967071E+00  1.506558294676E+00  1.524636994212E+00  1.542932638143E+00
  1.561447829800E+00  1.580185203758E+00  1.599147426203E+00  1.618337195317E+00
  1.637757241661E+00  1.657410328561E+00  1.677299252504E+00  1.697426843534E+00
  1.717795965656E+00  1.738409517244E+00  1.759270431451E+00  1.780381676629E+00
  1.801746256748E+00  1.823367211829E+00  1.845247618371E+00  1.867390589792E+00
  1.889799276869E+00  1.912476868191E+00  1.935426590610E+00  1.958651709697E+00
  1.982155530213E+00  2.005941396576E+00  2.030012693335E+00  2.054372845655E+00
  2.079025319803E+00  2.103973623640E+00  2.129221307124E+00  2.154771962810E+00
  2.180629226363E+00  2.206796777080E+00  2.233278338405E+00  2.260077678465E+00
  2.287198610607E+00  2.314644993934E+00  2.342420733862E+00  2.370529782668E+00
  2.398976140060E+00  2.427763853741E+00  2.456897019986E+00  2.486379784225E+00
  2.516216341636E+00  2.546410937736E+00  2.576967868988E+00  2.607891483416E+00
  2.639186181217E+00  2.670856415392E+00  2.702906692377E+00  2.735341572685E+00
  2.768165671557E+00  2.801383659616E+00  2.835000263531E+00  2.869020266694E+00
  2.903448509894E+00  2.938289892013E+00  2.973549370717E+00  3.009231963166E+00
  3.045342746724E+00  3.081886859684E+00  3.118869502001E+00  3.156295936025E+00
  3.194171487257E+00  3.232501545104E+00  3.271291563645E+00  3.310547062409E+00
  3.350273627158E+00  3.390476910684E+00  3.431162633612E+00  3.472336585215E+00
  3.514004624238E+00  3.556172679729E+00  3.598846751885E+00  3.642032912908E+00
  3.685737307863E+00  3.729966155557E+00  3.774725749424E+00  3.820022458417E+00
  3.865862727918E+00  3.912253080653E+00  3.959200117621E+00  4.006710519032E+00
  4.054791045261E+00  4.103448537804E+00  4.152689920258E+00  4.202522199301E+00
  4.252952465692E+00  4.303987895281E+00  4.355635750024E+00  4.407903379024E+00
  4.460798219573E+00  4.514327798207E+00  4.568499731786E+00  4.623321728567E+00
  4.678801589310E+00  4.734947208382E+00  4.791766574882E+00  4.849267773781E+00
  4.907458987066E+00  4.966348494911E+00  5.025944676850E+00  5.086256012972E+00
  5.147291085128E+00  5.209058578150E+00  5.271567281087E+00  5.334826088460E+00
  5.398844001522E+00  5.463630129540E+00  5.529193691095E+00  5.595544015388E+00
  5.662690543572E+00  5.730642830095E+00  5.799410544056E+00  5.869003470585E+00
  5.939431512232E+00  6.010704690379E+00  6.082833146664E+00  6.155827144423E+00
  6.229697070157E+00  6.304453434998E+00  6.380106876218E+00  6.456668158733E+00
  6.534148176638E+00  6.612557954757E+00  6.691908650215E+00  6.772211554017E+00
  6.853478092665E+00  6.935719829777E+00  7.018948467735E+00  7.103175849347E+00
  7.188413959540E+00  7.274674927054E+00  7.361971026179E+00  7.450314678493E+00
  7.539718454635E+00  7.630195076090E+00  7.721757417004E+00  7.814418506008E+00
  7.908191528080E+00  8.003089826417E+00  8.099126904334E+00  8.196316427186E+00
  8.294672224312E+00  8.394208291004E+00  8.494938790496E+00  8.596878055982E+00
  8.700040592653E+00  8.804441079765E+00  8.910094372722E+00  9.017015505195E+00
  9.125219691257E+00  9.234722327553E+00  9.345538995483E+00  9.457685463429E+00
  9.571177688990E+00  9.686031821258E+00  9.802264203113E+00  9.919891373550E+00
  1.003893007003E+01  1.015939723087E+01  1.028130999764E+01  1.040468571762E+01
  1.052954194623E+01  1.065589644958E+01  1.078376720698E+01  1.091317241346E+01
  1.104413048242E+01  1.117666004821E+01  1.131077996879E+01  1.144650932842E+01
  1.158386744036E+01  1.172287384964E+01  1.186354833584E+01  1.200591091587E+01
  1.214998184686E+01  1.229578162902E+01  1.244333100857E+01  1.259265098067E+01
  1.274376279244E+01  1.289668794595E+01  1.305144820130E+01  1.320806557971E+01
  1.336656236667E+01  1.352696111507E+01  1.368928464845E+01  1.385355606423E+01
  1.401979873700E+01  1.418803632185E+01  1.435829275771E+01  1.453059227080E+01
  1.470495937805E+01  1.488141889059E+01  1.505999591728E+01  1.524071586828E+01
  1.542360445870E+01  1.560868771221E+01  1.579599196475E+01  1.598554386833E+01
  1.617737039475E+01  1.637149883949E+01  1.656795682556E+01  1.676677230747E+01
  1.696797357516E+01  1.717158925806E+01  1.737764832916E+01  1.758618010911E+01
  1.779721427042E+01  1.801078084166E+01  1.822691021176E+01  1.844563313430E+01
  1.866698073191E+01  1.889098450070E+01  1.911767631470E+01  1.934708843048E+01
  1.957925349165E+01  1.981420453355E+01  2.005197498795E+01  2.029259868780E+01
  2.053610987206E+01  2.078254319052E+01  2.103193370881E+01  2.128431691331E+01
  2.153972871627E+01  2.179820546087E+01  2.205978392640E+01  2.232450133352E+01
  2.259239534952E+01  2.286350409371E+01  2.313786614284E+01  2.341552053655E+01
  2.369650678299E+01  2.398086486439E+01  2.426863524276E+01  2.455985886567E+01
  2.485457717206E+01  2.515283209812E+01  2.545466608330E+01  2.576012207630E+01
  2.606924354122E+01  2.638207446371E+01  2.669865935728E+01  2.701904326956E+01
  2.734327178880E+01  2.767139105026E+01  2.800344774287E+01  2.833948911578E+01
  2.867956298517E+01  2.902371774099E+01  2.937200235389E+01  2.972446638213E+01
  3.008115997872E+01  3.044213389846E+01  3.080743950524E+01  3.117712877931E+01
  3.155125432466E+01  3.192986937655E+01  3.231302780907E+01  3.270078414278E+01
  3.309319355250E+01  3.349031187513E+01  3.389219561763E+01  3.429890196504E+01
  3.471048878862E+01  3.512701465408E+01  3.554853882993E+01  3.597512129589E+01
  3.640682275144E+01  3.684370462446E+01  3.728582907995E+01  3.773325902891E+01
  3.818605813726E+01  3.864429083490E+01  3.910802232492E+01  3.957731859282E+01
  4.005224641594E+01  4.053287337293E+01  4.101926785340E+01  4.151149906764E+01
  4.200963705646E+01  4.251375270113E+01  4.302391773355E+01  4.354020474635E+01
  4.406268720331E+01
</grid-data>
</grid>
<valence-charge total-charge="23" is-unscreening-charge="yes"
 rescaled-to-z-pseudo="no">
<radfunc>
<data npts="457">
  5.666412854660E+00  5.669767016219E+00  5.679793960335E+00  5.696523174314E+00
  5.721072338895E+00  5.752399018977E+00  5.792329102026E+00  5.838058807683E+00
  5.889484888075E+00  5.949466228163E+00  6.017088589701E+00  6.090604812199E+00
  6.179474039640E+00  6.272312043190E+00  6.365077584613E+00  6.471957338630E+00
  6.595068113998E+00  6.711797359518E+00  6.843059527566E+00  6.990624083099E+00
  7.156464176758E+00  7.303762759688E+00  7.465395043746E+00  7.642703995491E+00
  7.837146135104E+00  8.050298059132E+00  8.283862471925E+00  8.473529702383E+00
  8.676531375988E+00  8.893734506069E+00  9.126049768900E+00  9.374431204948E+00
  9.639875292811E+00  9.923419249171E+00  1.022613838221E+01  1.054914229663E+01
  1.089356971522E+01  1.126058164511E+01  1.151838297431E+01  1.178709291867E+01
  1.206705935360E+01  1.235862689663E+01  1.266213459530E+01  1.297791329205E+01
  1.330628263426E+01  1.364754769574E+01  1.400199517445E+01  1.436988912977E+01
  1.475146622166E+01  1.514693041362E+01  1.555644710104E+01  1.598013662798E+01
  1.641806715642E+01  1.687024685579E+01  1.733661538423E+01  1.781703463965E+01
  1.831127876634E+01  1.881902341350E+01  1.933983425511E+01  1.987315479659E+01
  2.041829351368E+01  2.097441039207E+01  2.154050296468E+01  2.211539197537E+01
  2.269770683589E+01  2.328587108489E+01  2.387808810609E+01  2.417509137301E+01
  2.447232741545E+01  2.476950378367E+01  2.506631188513E+01  2.536242666735E+01
  2.565750633395E+01  2.595119209828E+01  2.624310797958E+01  2.653286064664E+01
  2.682003931423E+01  2.710421569789E+01  2.738494403282E+01  2.766176116289E+01
  2.793418670589E+01  2.820172330134E+01  2.846385694740E+01  2.872005743331E+01
  2.896977887410E+01  2.921246035394E+01  2.944752668494E+01  2.967438928749E+01
  2.989244719860E+01  3.010108821398E+01  3.029969016943E+01  3.048762236667E+01
  3.066424714807E+01  3.082892162407E+01  3.098099955638E+01  3.111983339890E+01
  3.124477649760E+01  3.135518544895E+01  3.145042261561E+01  3.152985879618E+01
  3.159287604462E+01  3.163887063282E+01  3.166725614814E+01  3.167746671560E+01
  3.166896033242E+01  3.164122230009E+01  3.159376873725E+01  3.152615015380E+01
  3.143795506465E+01  3.132881361889E+01  3.119840121785E+01  3.104644209316E+01
  3.087271281370E+01  3.067704568851E+01  3.045933203058E+01  3.021952524508E+01
  2.995764370452E+01  2.967377337202E+01  2.936807013412E+01  2.904076180399E+01
  2.869214975714E+01  2.832261016249E+01  2.793259477396E+01  2.752263124987E+01
  2.709332297115E+01  2.664534833274E+01  2.617945948781E+01  2.569648052909E+01
  2.519730509795E+01  2.468289341822E+01  2.415426875848E+01  2.361251333412E+01
  2.305876366797E+01  2.249420543573E+01  2.192006783047E+01  2.133761748750E+01
  2.074815201820E+01  2.015299320772E+01  1.955347993724E+01  1.895096089636E+01
  1.834678715492E+01  1.774230466606E+01  1.713884677401E+01  1.653772679963E+01
  1.594023077583E+01  1.534761040207E+01  1.476107628345E+01  1.418179151477E+01
  1.361086566408E+01  1.304934920343E+01  1.249822842770E+01  1.195842089433E+01
  1.143077141022E+01  1.091604858408E+01  1.041494195678E+01  9.928059715818E+00
  9.455926995518E+00  8.998984760576E+00  8.557589267667E+00  8.132012098130E+00
  7.722440753682E+00  7.328979806901E+00  6.951652598411E+00  6.590403473647E+00
  6.245100554193E+00  5.915539039466E+00  5.601445031392E+00  5.302479871703E+00
  5.018246548286E+00  4.748302862231E+00  4.492178073563E+00  4.249379481420E+00
  4.019395547714E+00  3.801701331349E+00  3.595763638828E+00  3.401048813284E+00
  3.217031314208E+00  3.043195563511E+00  2.879037708442E+00  2.724066992306E+00
  2.577806941048E+00  2.439796323569E+00  2.309589913214E+00  2.186759065414E+00
  2.070892127529E+00  1.961594696496E+00  1.858489739416E+00  1.761217591651E+00
  1.669435846348E+00  1.582819148605E+00  1.501058906756E+00  1.423862932479E+00
  1.350955020613E+00  1.282074478805E+00  1.216975616301E+00  1.155427200379E+00
  1.097211888216E+00  1.042125641178E+00  9.899771278568E-01  9.405871214553E-01
  8.937878965271E-01  8.494226294164E-01  8.073448062126E-01  7.674176414859E-01
  7.295135105800E-01  6.935133977868E-01  6.593063623082E-01  6.267890235306E-01
  5.958650667936E-01  5.664447705211E-01  5.384445553064E-01  5.117865552920E-01
  4.863982119675E-01  4.622118903163E-01  4.391645170756E-01  4.171972407306E-01
  3.962551127450E-01  3.762867894266E-01  3.572442537477E-01  3.390825563728E-01
  3.217595750949E-01  3.052357918496E-01  2.894740864566E-01  2.744395461603E-01
  2.600992902082E-01  2.464223084774E-01  2.333793133431E-01  2.209426039312E-01
  2.090859419294E-01  1.977844381552E-01  1.870144491091E-01  1.767534827715E-01
  1.669801129354E-01  1.576739013992E-01  1.488153273826E-01  1.403857235601E-01
  1.323672181462E-01  1.247426824976E-01  1.174956837378E-01  1.106104419386E-01
  1.040717914295E-01  9.786514583778E-02  9.197646649270E-02  8.639223385672E-02
  8.109942167593E-02  7.608547356821E-02  7.133828179315E-02  6.684616797163E-02
  6.259786554497E-02  5.858250378209E-02  5.478959317673E-02  5.120901205502E-02
  4.783099428314E-02  4.464611793764E-02  4.164529483009E-02  3.881976078641E-02
  3.616106659031E-02  3.366106950971E-02  3.131192533141E-02  2.910608083683E-02
  2.703626665635E-02  2.509549044582E-02  2.327703033266E-02  2.157442858363E-02
  1.998148545046E-02  1.849225315317E-02  1.710102996514E-02  1.580235436768E-02
  1.459099924608E-02  1.346196610270E-02  1.241047926733E-02  1.143198008842E-02
  1.052212109337E-02  9.676760109456E-03  8.891954341042E-03  8.163954402107E-03
  7.489198306272E-03  6.864305419584E-03  6.286070383791E-03  5.751457020099E-03
  5.257592225187E-03  4.801759872726E-03  4.381394734678E-03  3.994076437327E-03
  3.637523467369E-03  3.309587243329E-03  3.008246267379E-03  2.731600371994E-03
  2.477865075201E-03  2.245366057136E-03  2.032533769550E-03  1.837898188619E-03
  1.660083720099E-03  1.497804264413E-03  1.349858447860E-03  1.215125024647E-03
  1.092558453049E-03  9.811846475932E-04  8.800969078716E-04  7.884520233658E-04
  7.054665525369E-04  6.304132734609E-04  5.626178024189E-04  5.014553761344E-04
  4.463477927675E-04  3.967605063317E-04  3.521998688931E-04  3.122105147194E-04
  2.763728804771E-04  2.443008555913E-04  2.156395569897E-04  1.900632226178E-04
  1.672732183304E-04  1.469961530119E-04  1.289820970484E-04  1.130028995475E-04
  9.885059997219E-05  8.633593011200E-05  7.528690255315E-05  6.554748202387E-05
  5.697633617989E-05  4.944566255773E-05  4.284008855998E-05  3.705564144953E-05
  3.199878542078E-05  2.758552288871E-05  2.374055719422E-05  2.039651397066E-05
  1.749321845435E-05  1.497702605522E-05  1.280020353463E-05  1.092035816925E-05
  9.299912313493E-06  7.905620811630E-06  6.708128753873E-06  5.681567120596E-06
  4.803183915109E-06  4.053008448420E-06  3.413546509066E-06  2.869504226809E-06
  2.407538520426E-06  2.016032106044E-06  1.684891132770E-06  1.405363605912E-06
  1.169876853842E-06  9.718923917516E-07  8.057766332687E-07  6.666859982971E-07
  5.504650618149E-07  4.535564829586E-07  3.729215459697E-07  3.059702339413E-07
  2.504998423279E-07  2.046412215208E-07  1.668118161562E-07  1.356747430076E-07
  1.101032191915E-07  8.914971790227E-08  7.201928998094E-08  5.804654635342E-08
  4.667584881461E-08  3.744430491420E-08  2.996720695643E-08  2.392559553417E-08
  1.905566476493E-08  1.513975968546E-08  1.199874631451E-08  9.485561875001E-09
  7.479776923462E-09  5.883022674711E-09  4.615156063738E-09  3.611052102508E-09
  2.817928134522E-09  2.193117831573E-09  1.702224393542E-09  1.317592568420E-09
  1.017047959746E-09  7.828597745337E-10  6.008898175589E-10  4.598962772866E-10
  3.509657837848E-10  2.670514484117E-10  2.025982077760E-10  1.532398702046E-10
  1.155548728405E-10  8.686996477398E-11  6.510289216122E-11  4.863672436247E-11
  3.621976889195E-11  2.688611511107E-11  1.989275489222E-11  1.466998131189E-11
  1.078238827711E-11  7.898305872912E-12  5.765926126942E-12  4.194717145047E-12
  3.041003186305E-12  2.196815210197E-12  1.581299999703E-12  1.134123903738E-12
  8.104260339368E-13  5.769707880293E-13  4.092253239359E-13  2.891477634376E-13
  2.035194933881E-13  1.426924374991E-13  9.965161600453E-14  6.931633676721E-14
  4.802129797076E-14  3.313279911059E-14  2.276601131580E-14  1.557753502852E-14
  1.061381735693E-14  7.200844191622E-15  4.864203350108E-15  3.271401400871E-15
  2.190416862183E-15  1.460048491648E-15  9.687948253510E-16  6.398770528755E-16
  4.206659266679E-16  2.752515651202E-16  1.792458897957E-16  1.161637294171E-16
  7.491495016925E-17  4.807479115025E-17  3.069667563658E-17  1.950131568106E-17
  1.232561574981E-17  7.749948281565E-18  4.847382540743E-18  3.015827722284E-18
  1.866244726392E-18  1.148590464169E-18  7.030200237524E-19  4.279046010622E-19
  2.589842737525E-19  1.558535902902E-19  9.324944107159E-20  5.546636246381E-20
  3.279695538848E-20  0.000000000000E+00  0.000000000000E+00  0.000000000000E+00
  0.000000000000E+00  0.000000000000E+00  0.000000000000E+00  0.000000000000E+00
  0.000000000000E+00  0.000000000000E+00  0.000000000000E+00  0.000000000000E+00
  0.000000000000E+00  0.000000000000E+00  0.000000000000E+00  0.000000000000E+00
  0.000000000000E+00
</data>
</radfunc>
</valence-charge>
<pseudocore-charge matching-radius="0.693829287637"
 number-of-continuous-derivatives="4">
<annotation model-charge-form="Teter function with specified parameters" />
<radfunc>
<data npts="290">
  2.046976171929E+02  2.046786765101E+02  2.046220594761E+02  2.045276129320E+02
  2.043890514905E+02  2.042122937662E+02  2.039870855959E+02  2.037292952643E+02
  2.034395555398E+02  2.031018308270E+02  2.027213607773E+02  2.023080607185E+02
  2.018089045679E+02  2.012879858665E+02  2.007680083733E+02  2.001695721637E+02
  1.994811154726E+02  1.988291843644E+02  1.980970490975E+02  1.972751825866E+02
  1.963530173979E+02  1.955352503919E+02  1.946392840609E+02  1.936580449485E+02
  1.925839045735E+02  1.914086541760E+02  1.901234827021E+02  1.890818188452E+02
  1.879688212556E+02  1.867800777951E+02  1.855109761665E+02  1.841567067231E+02
  1.827122677691E+02  1.811724737900E+02  1.795319671041E+02  1.777852334781E+02
  1.759266223046E+02  1.739503719978E+02  1.725646343329E+02  1.711222745692E+02
  1.696215473410E+02  1.680607112336E+02  1.664380360504E+02  1.647518108856E+02
  1.630003530547E+02  1.611820179320E+02  1.592952097448E+02  1.573383933716E+02
  1.553101071870E+02  1.532089769952E+02  1.510337310836E+02  1.487832164258E+02
  1.464564160497E+02  1.440524675788E+02  1.415706829407E+02  1.390105692192E+02
  1.363718506111E+02  1.336544914257E+02  1.308587200406E+02  1.279850536998E+02
  1.250343240097E+02  1.220077029513E+02  1.189067291913E+02  1.157333344289E+02
  1.124898694731E+02  1.091791296914E+02  1.058043794223E+02  1.040941543727E+02
  1.023693748881E+02  1.006305907826E+02  9.887838508720E+01  9.711337455165E+01
  9.533621008977E+01  9.354757716435E+01  9.174819610511E+01  8.993882235431E+01
  8.812024663366E+01  8.629329502666E+01  8.445882896996E+01  8.261774514725E+01
  8.077097527946E+01  7.891948580449E+01  7.706427744006E+01  7.520638462312E+01
  7.334687481944E+01  7.148684769683E+01  6.962743415604E+01  6.776979521315E+01
  6.591512072787E+01  6.406462797220E+01  6.221956003468E+01  6.038118405544E+01
  5.855078928835E+01  5.672968498661E+01  5.491919810935E+01  5.312067084730E+01
  5.133545796650E+01  4.956492397005E+01  4.781044007903E+01  4.607338103460E+01
  4.435512172494E+01  4.265703364167E+01  4.098048117207E+01  3.932681773480E+01
  3.769738176845E+01  3.609349258406E+01  3.451644609429E+01  3.296751043394E+01
  3.144792148824E+01  2.995887834730E+01  2.850153870705E+01  2.707701423886E+01
  2.568636595206E+01  2.433059957529E+01  2.301066098465E+01  2.172743170818E+01
  2.048172453789E+01  1.927427928205E+01  1.810575869177E+01  1.697674459700E+01
  1.588773428786E+01  1.483913717794E+01  1.383127178640E+01  1.286436307561E+01
  1.193854018068E+01  1.105383456629E+01  1.021017864498E+01  9.407404889258E+00
  8.645245467507E+00  7.923332430940E+00  7.241198475519E+00  6.598278298748E+00
  5.993910566919E+00  5.427340503336E+00  4.897723102579E+00  4.404126969866E+00
  3.945538778129E+00  3.520868328576E+00  3.128954193343E+00  2.768569911400E+00
  2.438430701269E+00  2.137200646481E+00  1.863500302067E+00  1.615914662967E+00
  1.393001428173E+00  1.193299487754E+00  1.015337553963E+00  8.576428523653E-01
  7.187497847036E-01  5.972084719969E-01  4.915930844691E-01  4.005098643425E-01
  3.226047484860E-01  2.565705004618E-01  2.011532657372E-01  1.551584697654E-01
  1.174559862946E-01  8.698451259874E-02  6.275509925625E-02  4.385379451752E-02
  2.944337700163E-02  1.876416524558E-02  1.113390820568E-02  5.946776872310E-03
  2.671493345195E-03  8.486496378796E-04  8.728372278219E-05  6.079446469787E-05
  5.022896939521E-04  1.199472326833E-03  1.989177767028E-03  2.751681479824E-03
  3.404898345598E-03  3.898594973871E-03  4.208732489874E-03  4.332050393563E-03
  4.280992051900E-03  4.079059454389E-03  3.756669394825E-03  3.347565709648E-03
  2.885823180501E-03  2.403458858146E-03  1.928646614211E-03  1.484511439768E-03
  1.088462152084E-03  7.520054760027E-04  4.809715956982E-04  2.760717774774E-04
  1.337029514179E-04  4.691243991211E-05  6.438367656162E-06  1.747502218852E-06
  2.200196712803E-05  5.689885078202E-05  9.734144123869E-05  1.359167519054E-04
  1.671701869613E-04  1.876836276238E-04  1.959769469077E-04  1.922641417085E-04
  1.781032462408E-04  1.559835332111E-04  1.288940651015E-04  9.991456709131E-05
  7.186328417324E-05  4.702764670111E-05  2.699309591517E-05  1.257433936196E-05
  3.842679472022E-06  2.338888953580E-07  7.142344957350E-07  3.978270814145E-06
  8.651212595813E-06  1.347098671176E-05  1.743004503639E-05  1.986398004752E-05
  2.048199344625E-05  1.934228617105E-05  1.678244787167E-05  1.332005936960E-05
  9.541385028236E-06  5.995976908342E-06  3.112381090523E-06  1.145440871936E-06
  1.597402785421E-07  0.000000000000E+00  0.000000000000E+00  0.000000000000E+00
  0.000000000000E+00  0.000000000000E+00  0.000000000000E+00  0.000000000000E+00
  0.000000000000E+00  0.000000000000E+00  0.000000000000E+00  0.000000000000E+00
  0.000000000000E+00  0.000000000000E+00  0.000000000000E+00  0.000000000000E+00
  0.000000000000E+00  0.000000000000E+00  0.000000000000E+00  0.000000000000E+00
  0.000000000000E+00  0.000000000000E+00  0.000000000000E+00  0.000000000000E+00
  0.000000000000E+00  0.000000000000E+00  0.000000000000E+00  0.000000000000E+00
  0.000000000000E+00  0.000000000000E+00  0.000000000000E+00  0.000000000000E+00
  0.000000000000E+00  0.000000000000E+00  0.000000000000E+00  0.000000000000E+00
  0.000000000000E+00  0.000000000000E+00  0.000000000000E+00  0.000000000000E+00
  0.000000000000E+00  0.000000000000E+00  0.000000000000E+00  0.000000000000E+00
  0.000000000000E+00  0.000000000000E+00  0.000000000000E+00  0.000000000000E+00
  0.000000000000E+00  0.000000000000E+00  0.000000000000E+00  0.000000000000E+00
  0.000000000000E+00  0.000000000000E+00  0.000000000000E+00  0.000000000000E+00
  0.000000000000E+00  0.000000000000E+00  0.000000000000E+00  0.000000000000E+00
  0.000000000000E+00  0.000000000000E+00  0.000000000000E+00  0.000000000000E+00
  0.000000000000E+00  0.000000000000E+00
</data>
</radfunc>
</pseudocore-charge>
<semilocal-potentials set="scalar_relativistic">
<slps n="5" l="s" rc="1.40249998692" eref="-5.79868697752">
<radfunc>
<data npts="290">
 -1.934637671393E+01 -1.934815990323E+01 -1.935348875265E+01 -1.936237348000E+01
 -1.937539760321E+01 -1.939199379156E+01 -1.941310957758E+01 -1.943723976834E+01
 -1.946430900840E+01 -1.949579261685E+01 -1.953117274288E+01 -1.956950004083E+01
 -1.961564294071E+01 -1.966362764579E+01 -1.971135324504E+01 -1.976606783254E+01
 -1.982873329477E+01 -1.988779969355E+01 -1.995381630804E+01 -2.002752742218E+01
 -2.010973790359E+01 -2.018220528307E+01 -2.026113498574E+01 -2.034701986673E+01
 -2.044037359358E+01 -2.054172788149E+01 -2.065162875654E+01 -2.073999707055E+01
 -2.083372110223E+01 -2.093303603991E+01 -2.103817432869E+01 -2.114936331131E+01
 -2.126682253739E+01 -2.139076072017E+01 -2.152137232254E+01 -2.165883375727E+01
 -2.180329919048E+01 -2.195489594256E+01 -2.205997090609E+01 -2.216827786925E+01
 -2.227982805642E+01 -2.239462380540E+01 -2.251265775264E+01 -2.263391199028E+01
 -2.275835719764E+01 -2.288595174987E+01 -2.301664080727E+01 -2.315035538878E+01
 -2.328701143383E+01 -2.342650885685E+01 -2.356873059932E+01 -2.371354168417E+01
 -2.386078827799E+01 -2.401029676631E+01 -2.416187284771E+01 -2.431530065226E+01
 -2.447034189015E+01 -2.462673503599E+01 -2.478419455452E+01 -2.494241017320E+01
 -2.510104620682E+01 -2.525974093961E+01 -2.541810606952E+01 -2.557572621984E+01
 -2.573215852278E+01 -2.588693227988E+01 -2.603954870420E+01 -2.611488432129E+01
 -2.618948074946E+01 -2.626326767952E+01 -2.633617303163E+01 -2.640812295832E+01
 -2.647904184930E+01 -2.654885233796E+01 -2.661747530981E+01 -2.668482991270E+01
 -2.675083356924E+01 -2.681540199111E+01 -2.687844919568E+01 -2.693988752494E+01
 -2.699962766670E+01 -2.705757867843E+01 -2.711364801372E+01 -2.716774155147E+01
 -2.721976362806E+01 -2.726961707254E+01 -2.731720324515E+01 -2.736242207910E+01
 -2.740517212608E+01 -2.744535060546E+01 -2.748285345739E+01 -2.751757540020E+01
 -2.754940999204E+01 -2.757824969714E+01 -2.760398595678E+01 -2.762650926537E+01
 -2.764570925167E+01 -2.766147476538E+01 -2.767369396948E+01 -2.768225443839E+01
 -2.768704326212E+01 -2.768794715680E+01 -2.768485258159E+01 -2.767764586228E+01
 -2.766621332172E+01 -2.765044141728E+01 -2.763021688550E+01 -2.760542689407E+01
 -2.757595920131E+01 -2.754170232339E+01 -2.750254570931E+01 -2.745837992395E+01
 -2.740909683929E+01 -2.735458983402E+01 -2.729475400191E+01 -2.722948636902E+01
 -2.715868612034E+01 -2.708225483610E+01 -2.700009673851E+01 -2.691211894935E+01
 -2.681823175943E+01 -2.671834891085E+01 -2.661238789319E+01 -2.650027025528E+01
 -2.638192193407E+01 -2.625727360294E+01 -2.612626104168E+01 -2.598882553134E+01
 -2.584491427718E+01 -2.569448086389E+01 -2.553748574781E+01 -2.537389679154E+01
 -2.520368984747E+01 -2.502684939763E+01 -2.484336925844E+01 -2.465325336048E+01
 -2.445651661491E+01 -2.425318588002E+01 -2.404330104393E+01 -2.382691624156E+01
 -2.360410122771E+01 -2.337494293103E+01 -2.313954721841E+01 -2.289804090387E+01
 -2.265057404176E+01 -2.239732255051E+01 -2.213849122023E+01 -2.187431716571E+01