<?xml version="1.0" encoding="UTF-8" ?>
<psml version="1.1" energy_unit="hartree" length_unit="bohr"
 uuid="9ab3dd40-be41-11e7-6c4a-ab88bfef78d9"
 xmlns="http://esl.cecam.org/PSML/ns/1.1">
<provenance creator="ONCVPSP-3.3.0+psml-3.3.0-73 (scalar-relativistic)"
 date="2017-10-31">
<annotation action="semilocal-pseudopotential-generation"
 action-cont="projectors-generation" />
<input-file name="oncvpsp-input">
<![CDATA[# atsym z nc nv iexc psfile
Cl 17 3 2 4 upf
# n l f
1 0 2.0
2 0 2.0
2 1 6.0
3 0 2.0
3 1 5.0
# lmax
2
# l rc ep ncon nbas qcut
0 1.55 0.0 4 9 6.8
1 1.35 0.0 4 8 8.0
2 1.75 0.1 4 9 6.8
# lloc lpopt rc5 dvloc0
4 5 1.3 0.0
# l nproj debl
0 2 2.0
1 2 2.0
2 2 1.5
# icmod fcfact rcfact
3 8.0 1.23
# epsh1 epsh2 depsh
-15.0 12.0 0.02
# rlmax drl
6.0 0.01
 0
]]>
</input-file>
</provenance>
<pseudo-atom-spec atomic-label="Cl" atomic-number="17" z-pseudo="7"
 flavor="Hamann&apos;s oncvpsp" relativity="scalar" spin-dft="no"
 core-corrections="yes">
<annotation pseudo-energy="-14.9699891420" />
<exchange-correlation>
<annotation oncvpsp-xc-code="4" oncvpsp-xc-type="GGA -- Perdew-Burke-Ernzerhof" />
<libxc-info number-of-functionals="2">
<functional name="Perdew, Burke &amp; Ernzerhof (GGA)" type="exchange" id="101" />
<functional name="Perdew, Burke &amp; Ernzerhof (GGA)" type="correlation"
 id="130" />
</libxc-info>
</exchange-correlation>
<valence-configuration total-valence-charge="7">
<shell n="3" l="s" occupation="2" />
<shell n="3" l="p" occupation="5" />
</valence-configuration>
</pseudo-atom-spec>
<grid npts="457">
<annotation type="sampled from oncvpsp log grid"
 recipe="r(i:1..N) = r1*exp(a*(i-1)) + r=0; resampled"
 recipe-cont="r1: scale; a: step" scale="0.294117647059E-04"
 step="0.119285708653E-01" delta="0.500000000000E-02" rmax="44.0242521724" />
<grid-data>
  0.000000000000E+00  5.027151483922E-03  1.004134057245E-02  1.506361205528E-02
  2.029747125469E-02  2.546077814243E-02  3.081483684808E-02  3.598375947907E-02
  4.102911721421E-02  4.622716901962E-02  5.146617712438E-02  5.661949745917E-02
  6.228882096259E-02  6.771325607946E-02  7.273723248327E-02  7.813396217599E-02
  8.393110154036E-02  8.908928747130E-02  9.456448201537E-02  1.003761676926E-01
  1.065450243678E-01  1.117519790870E-01  1.172134025401E-01  1.229417308514E-01
  1.289500079103E-01  1.352519150732E-01  1.418618023172E-01  1.470303566364E-01
  1.523872206578E-01  1.579392552059E-01  1.636935710706E-01  1.696575381144E-01
  1.758387947112E-01  1.822452575295E-01  1.888851316716E-01  1.957669211822E-01
  2.028994399400E-01  2.102918229461E-01  2.153691087193E-01  2.205689804802E-01
  2.258943979449E-01  2.313483922889E-01  2.369340678723E-01  2.426546040070E-01
  2.485132567662E-01  2.545133608375E-01  2.606583314216E-01  2.669516661754E-01
  2.733969472036E-01  2.799978430969E-01  2.867581110206E-01  2.936815988531E-01
  3.007722473758E-01  3.080340925164E-01  3.154712676462E-01  3.230880059322E-01
  3.308886427474E-01  3.388776181379E-01  3.470594793502E-01  3.554388834197E-01
  3.640205998210E-01  3.728095131830E-01  3.818106260693E-01  3.910290618251E-01
  4.004700674939E-01  4.101390168034E-01  4.200414132251E-01  4.250819101838E-01
  4.301828931060E-01  4.353450878233E-01  4.405692288772E-01  4.458560596237E-01
  4.512063323392E-01  4.566208083273E-01  4.621002580272E-01  4.676454611235E-01
  4.732572066570E-01  4.789362931369E-01  4.846835286545E-01  4.904997309984E-01
  4.963857277704E-01  5.023423565036E-01  5.083704647817E-01  5.144709103590E-01
  5.206445612833E-01  5.268922960187E-01  5.332150035710E-01  5.396135836138E-01
  5.460889466172E-01  5.526420139766E-01  5.592737181443E-01  5.659850027620E-01
  5.727768227952E-01  5.796501446687E-01  5.866059464048E-01  5.936452177616E-01
  6.007689603747E-01  6.079781878992E-01  6.152739261540E-01  6.226572132679E-01
  6.301290998271E-01  6.376906490250E-01  6.453429368133E-01  6.530870520551E-01
  6.609240966797E-01  6.688551858399E-01  6.768814480700E-01  6.850040254468E-01
  6.932240737522E-01  7.015427626372E-01  7.099612757889E-01  7.184808110983E-01
  7.271025808315E-01  7.358278118015E-01  7.446577455431E-01  7.535936384896E-01
  7.626367621515E-01  7.717884032973E-01  7.810498641369E-01  7.904224625065E-01
  7.999075320566E-01  8.095064224413E-01  8.192204995106E-01  8.290511455047E-01
  8.389997592508E-01  8.490677563618E-01  8.592565694381E-01  8.695676482714E-01
  8.800024600506E-01  8.905624895712E-01  9.012492394461E-01  9.120642303194E-01
  9.230090010833E-01  9.340851090963E-01  9.452941304054E-01  9.566376599703E-01
  9.681173118899E-01  9.797347196326E-01  9.914915362682E-01  1.003389434703E+00
  1.015430107920E+00  1.027615269215E+00  1.039946652445E+00  1.052426012275E+00
  1.065055124422E+00  1.077835785915E+00  1.090769815346E+00  1.103859053130E+00
  1.117105361768E+00  1.130510626109E+00  1.144076753622E+00  1.157805674666E+00
  1.171699342762E+00  1.185759734875E+00  1.199988851694E+00  1.214388717914E+00
  1.228961382529E+00  1.243708919119E+00  1.258633426149E+00  1.273737027262E+00
  1.289021871590E+00  1.304490134049E+00  1.320144015657E+00  1.335985743845E+00
  1.352017572771E+00  1.368241783644E+00  1.384660685048E+00  1.401276613269E+00
  1.418091932628E+00  1.435109035820E+00  1.452330344249E+00  1.469758308380E+00
  1.487395408081E+00  1.505244152978E+00  1.523307082814E+00  1.541586767807E+00
  1.560085809021E+00  1.578806838729E+00  1.597752520794E+00  1.616925551044E+00
  1.636328657656E+00  1.655964601548E+00  1.675836176767E+00  1.695946210888E+00
  1.716297565418E+00  1.736893136203E+00  1.757735853838E+00  1.778828684084E+00
  1.800174628293E+00  1.821776723832E+00  1.843638044518E+00  1.865761701053E+00
  1.888150841465E+00  1.910808651563E+00  1.933738355382E+00  1.956943215646E+00
  1.980426534234E+00  2.004191652645E+00  2.028241952477E+00  2.052580855906E+00
  2.077211826177E+00  2.102138368091E+00  2.127364028508E+00  2.152892396850E+00
  2.178727105613E+00  2.204871830880E+00  2.231330292851E+00  2.258106256365E+00
  2.285203531441E+00  2.312625973818E+00  2.340377485504E+00  2.368462015330E+00
  2.396883559514E+00  2.425646162228E+00  2.454753916175E+00  2.484210963169E+00
  2.514021494727E+00  2.544189752664E+00  2.574720029696E+00  2.605616670052E+00
  2.636884070093E+00  2.668526678934E+00  2.700548999081E+00  2.732955587070E+00
  2.765751054115E+00  2.798940066765E+00  2.832527347566E+00  2.866517675736E+00
  2.900915887845E+00  2.935726878499E+00  2.970955601041E+00  3.006607068254E+00
  3.042686353073E+00  3.079198589310E+00  3.116148972382E+00  3.153542760050E+00
  3.191385273171E+00  3.229681896449E+00  3.268438079206E+00  3.307659336157E+00
  3.347351248191E+00  3.387519463169E+00  3.428169696727E+00  3.469307733088E+00
  3.510939425885E+00  3.553070698995E+00  3.595707547383E+00  3.638856037952E+00
  3.682522310407E+00  3.726712578132E+00  3.771433129070E+00  3.816690326619E+00
  3.862490610538E+00  3.908840497864E+00  3.955746583839E+00  4.003215542845E+00
  4.051254129359E+00  4.099869178911E+00  4.149067609058E+00  4.198856420367E+00
  4.249242697411E+00  4.300233609780E+00  4.351836413098E+00  4.404058450055E+00
  4.456907151455E+00  4.510390037273E+00  4.564514717720E+00  4.619288894333E+00
  4.674720361065E+00  4.730817005398E+00  4.787586809462E+00  4.845037851176E+00
  4.903178305390E+00  4.962016445055E+00  5.021560642395E+00  5.081819370104E+00
  5.142801202545E+00  5.204514816976E+00  5.266968994780E+00  5.330172622717E+00
  5.394134694190E+00  5.458864310520E+00  5.524370682246E+00  5.590663130433E+00
  5.657751087998E+00  5.725644101054E+00  5.794351830267E+00  5.863884052230E+00
  5.934250660857E+00  6.005461668787E+00  6.077527208813E+00  6.150457535318E+00
  6.224263025742E+00  6.298954182051E+00  6.374541632236E+00  6.451036131823E+00
  6.528448565404E+00  6.606789948189E+00  6.686071427568E+00  6.766304284698E+00
  6.847499936115E+00  6.929669935348E+00  7.012825974572E+00  7.096979886267E+00
  7.182143644902E+00  7.268329368641E+00  7.355549321065E+00  7.443815912918E+00
  7.533141703873E+00  7.623539404319E+00  7.715021877171E+00  7.807602139697E+00
  7.901293365373E+00  7.996108885758E+00  8.092062192387E+00  8.189166938696E+00
  8.287436941960E+00  8.386886185263E+00  8.487528819487E+00  8.589379165320E+00
  8.692451715304E+00  8.796761135888E+00  8.902322269519E+00  9.009150136753E+00
  9.117259938394E+00  9.226667057655E+00  9.337387062346E+00  9.449435707095E+00
  9.562828935580E+00  9.677582882807E+00  9.793713877400E+00  9.911238443929E+00
  1.003017330526E+01  1.015053538492E+01  1.027234180954E+01  1.039560991125E+01
  1.052035723019E+01  1.064660151695E+01  1.077436073515E+01  1.090365306398E+01
  1.103449690074E+01  1.116691086355E+01  1.130091379391E+01  1.143652475944E+01
  1.157376305655E+01  1.171264821323E+01  1.185319999179E+01  1.199543839169E+01
  1.213938365239E+01  1.228505625622E+01  1.243247693130E+01  1.258166665447E+01
  1.273264665433E+01  1.288543841418E+01  1.304006367515E+01  1.319654443925E+01
  1.335490297252E+01  1.351516180819E+01  1.367734374989E+01  1.384147187489E+01
  1.400756953739E+01  1.417566037184E+01  1.434576829630E+01  1.451791751585E+01
  1.469213252604E+01  1.486843811636E+01  1.504685937375E+01  1.522742168624E+01
  1.541015074647E+01  1.559507255543E+01  1.578221342610E+01  1.597159998721E+01
  1.616325918706E+01  1.635721829730E+01  1.655350491687E+01  1.675214697587E+01
  1.695317273958E+01  1.715661081246E+01  1.736249014220E+01  1.757084002391E+01
  1.778169010420E+01  1.799507038545E+01  1.821101123007E+01  1.842954336484E+01
  1.865069788521E+01  1.887450625984E+01  1.910100033495E+01  1.933021233897E+01
  1.956217488704E+01  1.979692098569E+01  2.003448403751E+01  2.027489784596E+01
  2.051819662012E+01  2.076441497956E+01  2.101358795931E+01  2.126575101482E+01
  2.152094002700E+01  2.177919130732E+01  2.204054160301E+01  2.230502810225E+01
  2.257268843948E+01  2.284356070075E+01  2.311768342916E+01  2.339509563031E+01
  2.367583677787E+01  2.395994681921E+01  2.424746618104E+01  2.453843577521E+01
  2.483289700451E+01  2.513089176857E+01  2.543246246979E+01  2.573765201943E+01
  2.604650384366E+01  2.635906188978E+01  2.667537063246E+01  2.699547508005E+01
  2.731942078101E+01  2.764725383038E+01  2.797902087635E+01  2.831476912686E+01
  2.865454635639E+01  2.899840091266E+01  2.934638172361E+01  2.969853830430E+01
  3.005492076395E+01  3.041557981312E+01  3.078056677087E+01  3.114993357213E+01
  3.152373277499E+01  3.190201756829E+01  3.228484177911E+01  3.267225988046E+01
  3.306432699902E+01  3.346109892301E+01  3.386263211009E+01  3.426898369541E+01
  3.468021149976E+01  3.509637403775E+01  3.551753052621E+01  3.594374089252E+01
  3.637506578323E+01  3.681156657263E+01  3.725330537150E+01  3.770034503596E+01
  3.815274917639E+01  3.861058216651E+01  3.907390915250E+01  3.954279606233E+01
  4.001730961508E+01  4.049751733046E+01  4.098348753843E+01  4.147528938889E+01
  4.197299286156E+01  4.247666877590E+01  4.298638880121E+01  4.350222546682E+01
  4.402425217242E+01
</grid-data>
</grid>
<valence-charge total-charge="7" is-unscreening-charge="yes"
 rescaled-to-z-pseudo="no">
<radfunc>
<data npts="457">
  5.502008011033E-02  5.515217736942E-02  5.554714965564E-02  5.620639729630E-02
  5.717440690413E-02  5.841070342704E-02  5.998822160884E-02  6.179719682309E-02
  6.383448684020E-02  6.621469000048E-02  6.890326753931E-02  7.183239556454E-02
  7.538190713263E-02  7.910009664143E-02  8.282578622452E-02  8.713126971670E-02
  9.210781700743E-02  9.684349718305E-02  1.021887365381E-01  1.082231865730E-01
  1.150371772126E-01  1.211180627768E-01  1.278219586270E-01  1.352139352653E-01
  1.433660536147E-01  1.523581363731E-01  1.622786228529E-01  1.703868182545E-01
  1.791173565271E-01  1.885190666518E-01  1.986446870931E-01  2.095511731184E-01
  2.213000238597E-01  2.339576289579E-01  2.475956341542E-01  2.622913245759E-01
  2.781280236780E-01  2.951955048074E-01  3.073050228947E-01  3.200347759317E-01
  3.334166780073E-01  3.474841933490E-01  3.622723889973E-01  3.778179850706E-01
  3.941594017197E-01  4.113368017253E-01  4.293921275312E-01  4.483691313191E-01
  4.683133965327E-01  4.892723490302E-01  5.112952557948E-01  5.344332088591E-01
  5.587390917950E-01  5.842675257905E-01  6.110747919742E-01  6.392187262570E-01
  6.687585825411E-01  6.997548596925E-01  7.322690871984E-01  7.663635639225E-01
  8.021010438499E-01  8.395443621706E-01  8.787559945089E-01  9.197975415692E-01
  9.627291309567E-01  1.007608727469E+00  1.054491342766E+00  1.078699946949E+00
  1.103428135051E+00  1.128681532462E+00  1.154465389283E+00  1.180784541266E+00
  1.207643368532E+00  1.235045752000E+00  1.262995027478E+00  1.291493937349E+00
  1.320544579814E+00  1.350148355658E+00  1.380305912499E+00  1.411017086516E+00
  1.442280841641E+00  1.474095206229E+00  1.506457207243E+00  1.539362801981E+00
  1.572806807430E+00  1.606782827329E+00  1.641283177065E+00  1.676298806539E+00
  1.711819221195E+00  1.747832401410E+00  1.784324720509E+00  1.821280861688E+00
  1.858683734193E+00  1.896514389117E+00  1.934751935276E+00  1.973373455624E+00
  2.012353924759E+00  2.051666128113E+00  2.091280583488E+00  2.131165465635E+00
  2.171286534673E+00  2.211607069162E+00  2.252087804735E+00  2.292686879232E+00
  2.333359785333E+00  2.374059331756E+00  2.414735614085E+00  2.455335996379E+00
  2.495805104700E+00  2.536084833721E+00  2.576114367596E+00  2.615830216234E+00
  2.655166268111E+00  2.694053860691E+00  2.732421869480E+00  2.770196816633E+00
  2.807302999941E+00  2.843662642888E+00  2.879196066300E+00  2.913821881982E+00
  2.947457208476E+00  2.980017908910E+00  3.011418850647E+00  3.041574186210E+00
  3.070397654674E+00  3.097802902478E+00  3.123703822325E+00  3.148014908570E+00
  3.170651627260E+00  3.191530798742E+00  3.210570990544E+00  3.227692918071E+00
  3.242819850505E+00  3.255878019224E+00  3.266797025985E+00  3.275510248184E+00
  3.281955238502E+00  3.286074116454E+00  3.287813949472E+00  3.287127121421E+00
  3.283971686703E+00  3.278311708386E+00  3.270117579102E+00  3.259366323763E+00
  3.246041883376E+00  3.230135379481E+00  3.211645358837E+00  3.190578018031E+00
  3.166947407593E+00  3.140775614957E+00  3.112092925265E+00  3.080937958427E+00
  3.047357780239E+00  3.011407984495E+00  2.973152742163E+00  2.932664812732E+00
  2.890025511869E+00  2.845324628670E+00  2.798660285054E+00  2.750138729403E+00
  2.699874056409E+00  2.647987845392E+00  2.594608710214E+00  2.539871755287E+00
  2.483917934236E+00  2.426893005063E+00  2.368945115660E+00  2.310221622085E+00
  2.250867844694E+00  2.191026705701E+00  2.130837703303E+00  2.070436172435E+00
  2.009952552652E+00  1.949511726823E+00  1.889232443220E+00  1.829226836515E+00
  1.769600061140E+00  1.710450176071E+00  1.651868683755E+00  1.593941442546E+00
  1.536748804124E+00  1.480365410250E+00  1.424860290031E+00  1.370296879756E+00
  1.316733081311E+00  1.264221339798E+00  1.212808740384E+00  1.162537122861E+00
  1.113443212305E+00  1.065558764279E+00  1.018910722972E+00  9.735213907345E-01
  9.294086074550E-01  8.865859382859E-01  8.450628682781E-01  8.048450024215E-01
  7.659342699391E-01  7.283291313615E-01  6.920247872570E-01  6.570133874625E-01
  6.232842397459E-01  5.908240169096E-01  5.596169614258E-01  5.296450867700E-01
  5.008883747009E-01  4.733249678107E-01  4.469313567494E-01  4.216825616031E-01
  3.975523069564E-01  3.745131903063E-01  3.525368434641E-01  3.315940867260E-01
  3.116550756183E-01  2.926894400857E-01  2.746664160456E-01  2.575549692763E-01
  2.413239116551E-01  2.259420097993E-01  2.113780861996E-01  1.976011129687E-01
  1.845802983519E-01  1.722851661741E-01  1.606856284158E-01  1.497520511252E-01
  1.394553138921E-01  1.297668631152E-01  1.206587593043E-01  1.121037186657E-01
  1.040751492222E-01  9.654718172107E-02  8.949469558666E-02  8.289334017296E-02
  7.671955157117E-02  7.095056522713E-02  6.556442462089E-02  6.053998625952E-02
  5.585692123135E-02  5.149571356756E-02  4.743765565383E-02  4.366484093134E-02
  4.016015412246E-02  3.690725921223E-02  3.389058541139E-02  3.109531132139E-02
  2.850734751533E-02  2.611331774192E-02  2.390053895172E-02  2.185700033691E-02
  1.997134156654E-02  1.823283039014E-02  1.663133977224E-02  1.515732471024E-02
  1.380179887733E-02  1.255631122111E-02  1.141292263789E-02  1.036418283122E-02
  9.403107452569E-03  8.523155611181E-03  7.718207829473E-03  6.982544510373E-03
  6.310824972969E-03  5.698067103599E-03  5.139627660584E-03  4.631183262552E-03
  4.168712082536E-03  3.748476262910E-03  3.367005059782E-03  3.021078719539E-03
  2.707713085093E-03  2.424144924754E-03  2.167817972719E-03  1.936369666795E-03
  1.727618566204E-03  1.539552430056E-03  1.370316935347E-03  1.218205012030E-03
  1.081646771857E-03  9.592000071513E-04  8.495412354943E-04  7.514572663475E-04
  6.638372659454E-04  5.856652972307E-04  5.160133122090E-04  4.540345747843E-04
  3.989574928928E-04  3.500798395461E-04  3.067633432024E-04  2.684286286885E-04
  2.345504906861E-04  2.046534825547E-04  1.783078039986E-04  1.551254717710E-04
  1.347567582712E-04  1.168868835043E-04  1.012329464602E-04  8.754108251888E-05
  7.558383401371E-05  6.515772158543E-05  5.608100443664E-05  4.819161806074E-05
  4.134527846747E-05  3.541374236551E-05  3.028321319243E-05  2.585288330584E-05
  2.203360306778E-05  1.874666796841E-05  1.592271534532E-05  1.350072266132E-05
  1.142709970572E-05  9.654867482212E-06  8.142916938668E-06  6.855341080681E-06
  5.760834389570E-06  4.832153836551E-06  4.045636146415E-06  3.380766315495E-06
  2.819792729050E-06  2.347384551574E-06  1.950327379233E-06  1.617253446017E-06
  1.338402963809E-06  1.105413451042E-06  9.111341646278E-07  7.494629954350E-07
  6.152034185844E-07  5.039393064530E-07  4.119256146824E-07  3.359931399678E-07
  2.734657233407E-07  2.220884344840E-07  1.799654218232E-07  1.455062502673E-07
  1.173796740934E-07  9.447390718705E-08  7.586255728228E-08  6.077548561137E-08
  4.857393910897E-08  3.872937963757E-08  3.080550422251E-08  2.444301260301E-08
  1.934673409698E-08  1.527477539559E-08  1.202939497843E-08  9.449348871960E-09
  7.403486936592E-09  5.785409204190E-09  4.509018411807E-09  3.504828173041E-09
  2.716906550214E-09  2.100352464633E-09  1.619217706973E-09  1.244800557213E-09
  9.542484402554E-10  7.294168522447E-10  5.559401941968E-10  4.224773234925E-10
  3.201007404884E-10  2.418035094402E-10  1.821023963500E-10  1.367194025638E-10
  1.023269797566E-10  7.634481495780E-11  5.677824814265E-11  4.209019447001E-11
  3.109994460190E-11  2.290345805794E-11  1.681078778100E-11  1.229711456001E-11
  8.964557966923E-12  6.512491739108E-12  4.714547838364E-12  3.400863077679E-12
  2.444420621889E-12  1.750578710020E-12  1.249071338873E-12  8.879192871384E-13
  6.288121016595E-13  4.436185675372E-13  3.117597070080E-13  2.182385543167E-13
  1.521681344564E-13  1.056759059785E-13  7.309156916905E-14  5.034732421464E-14
  3.453677678307E-14  2.359183626556E-14  1.604700928188E-14  1.086817758436E-14
  7.328699546342E-15  4.920188918297E-15  3.288501919492E-15  2.188025299543E-15
  1.449174199295E-15  9.553852886396E-16  6.269045438193E-16  4.094150685638E-16
  2.660967873443E-16  1.721082956379E-16  1.107698328781E-16  0.000000000000E+00
  0.000000000000E+00  0.000000000000E+00  0.000000000000E+00  0.000000000000E+00
  0.000000000000E+00  0.000000000000E+00  0.000000000000E+00  0.000000000000E+00
  0.000000000000E+00  0.000000000000E+00  0.000000000000E+00  0.000000000000E+00
  0.000000000000E+00  0.000000000000E+00  0.000000000000E+00  0.000000000000E+00
  0.000000000000E+00  0.000000000000E+00  0.000000000000E+00  0.000000000000E+00
  0.000000000000E+00  0.000000000000E+00  0.000000000000E+00  0.000000000000E+00
  0.000000000000E+00  0.000000000000E+00  0.000000000000E+00  0.000000000000E+00
  0.000000000000E+00  0.000000000000E+00  0.000000000000E+00  0.000000000000E+00
  0.000000000000E+00  0.000000000000E+00  0.000000000000E+00  0.000000000000E+00
  0.000000000000E+00  0.000000000000E+00  0.000000000000E+00  0.000000000000E+00
  0.000000000000E+00  0.000000000000E+00  0.000000000000E+00  0.000000000000E+00
  0.000000000000E+00  0.000000000000E+00  0.000000000000E+00  0.000000000000E+00
  0.000000000000E+00  0.000000000000E+00  0.000000000000E+00  0.000000000000E+00
  0.000000000000E+00  0.000000000000E+00  0.000000000000E+00  0.000000000000E+00
  0.000000000000E+00
</data>
</radfunc>
</valence-charge>
<pseudocore-charge matching-radius="0.819220499511"
 number-of-continuous-derivatives="4">
<annotation model-charge-form="Teter function with specified parameters" />
<radfunc>
<data npts="290">
  2.590761267593E+01  2.590557536137E+01  2.589948531157E+01  2.588932557747E+01
  2.587441915413E+01  2.585540151649E+01  2.583116766636E+01  2.580342314686E+01
  2.577223420062E+01  2.573587203834E+01  2.569489737984E+01  2.565037483913E+01
  2.559658643068E+01  2.554043295497E+01  2.548436054316E+01  2.541980213693E+01
  2.534549884264E+01  2.527510437741E+01  2.519601084647E+01  2.510717447638E+01
  2.500743464334E+01  2.491893113752E+01  2.482190455602E+01  2.471557131907E+01
  2.459908361261E+01  2.447152579839E+01  2.433191101397E+01  2.421865204602E+01
  2.409753971108E+01  2.396807315857E+01  2.382972631641E+01  2.368194770529E+01
  2.352416046375E+01  2.335576262655E+01  2.317612770412E+01  2.298460561711E+01
  2.278052404626E+01  2.256319026456E+01  2.241058840633E+01  2.225156666032E+01
  2.208590808786E+01  2.191339379550E+01  2.173380355429E+01  2.154691649984E+01
  2.135251191900E+01  2.115037012972E+01  2.094027346015E+01  2.072200733376E+01
  2.049536146658E+01  2.026013118306E+01  2.001611885654E+01  1.976313548007E+01
  1.950100237292E+01  1.922955302724E+01  1.894863509894E+01  1.865811254519E+01
  1.835786791041E+01  1.804780476025E+01  1.772785026198E+01  1.739795790700E+01
  1.705811036878E+01  1.670832248686E+01  1.634864436365E+01  1.597916455775E+01
  1.560001335241E+01  1.521136607384E+01  1.481344642831E+01  1.461109342301E+01
  1.440652982167E+01  1.419979866298E+01  1.399094661873E+01  1.378002408888E+01
  1.356708529354E+01  1.335218836149E+01  1.313539541456E+01  1.291677264742E+01
  1.269639040211E+01  1.247432323680E+01  1.225064998793E+01  1.202545382537E+01
  1.179882229960E+01  1.157084738034E+01  1.134162548595E+01  1.111125750261E+01
  1.087984879277E+01  1.064750919187E+01  1.041435299260E+01  1.018049891588E+01
  9.946070067713E+00  9.711193881097E+00  9.476002042169E+00  9.240630399758E+00
  9.005218857546E+00  8.769911248075E+00  8.534855187823E+00  8.300201912648E+00
  8.066106092919E+00  7.832725627716E+00  7.600221417535E+00  7.368757115008E+00
  7.138498853225E+00  6.909614951346E+00  6.682275597280E+00  6.456652507324E+00
  6.232918562794E+00  6.011247423794E+00  5.791813120436E+00  5.574789621973E+00
  5.360350384490E+00  5.148667877967E+00  4.939913093733E+00  4.734255033544E+00
  4.531860181700E+00  4.332891961882E+00  4.137510180591E+00  3.945870459312E+00
  3.758123657792E+00  3.574415291022E+00  3.394884942794E+00  3.219665678943E+00
  3.048883463584E+00  2.882656581940E+00  2.721095073523E+00  2.564300179669E+00
  2.412363809585E+00  2.265368029258E+00  2.123384577669E+00  1.986474414906E+00
  1.854687306798E+00  1.728061450740E+00  1.606623147356E+00  1.490386522579E+00
  1.379353304612E+00  1.273512660048E+00  1.172841093202E+00  1.077302412386E+00
  9.868477665131E-01  9.014157549608E-01  8.209326131283E-01  7.453124755428E-01
  6.744577177308E-01  6.082593773599E-01  5.465976543897E-01  4.893424891436E-01
  4.363542163403E-01  3.874842922087E-01  3.425760908625E-01  3.014657651517E-01
  2.639831662315E-01  2.299528151383E-01  1.991949187231E-01  1.715264214070E-01
  1.467620833991E-01  1.247155752717E-01  1.052005781509E-01  8.803187826111E-02
  7.302644419002E-02  6.000447502308E-02  4.879040746437E-02  3.921387021391E-02
  3.111057423398E-02  2.432312810974E-02  1.870176850069E-02  1.410499668699E-02
  1.040011343357E-02  7.463645814348E-03  5.181661240614E-03  3.449965699244E-03
  2.174185097952E-03  1.269730600511E-03  6.616508740392E-04  2.843762167402E-04
  8.136153802089E-05  4.637070822531E-06  1.427745412050E-05  7.780137794475E-05
  1.695152821702E-04  2.698155960619E-04  3.644646566734E-04  4.438557175063E-04
  5.022823314255E-04  5.372268528421E-04  5.486818563102E-04  5.385169293041E-04
  5.099015985729E-04  4.667931398240E-04  4.134957616516E-04  3.542952215763E-04
  2.931704104003E-04  2.335809239576E-04  1.783272257980E-04  1.294777869733E-04
  8.835566140637E-05  5.557539884590E-05  3.112007895746E-05  1.444761736041E-05
  4.615372288319E-06  4.124684515771E-07  4.901251997061E-07  3.481575132120E-06
  8.104807998049E-06  1.324327298216E-05  1.800170433873E-05  2.173627577563E-05
  2.406021180075E-05  2.482767064408E-05  2.410006060743E-05  2.209988103883E-05
  1.915764250073E-05  1.565740526948E-05  1.198600546909E-05  8.490174478030E-06
  5.444592239032E-06  3.032565783857E-06  1.339622230525E-06  3.589849111353E-07
  6.786184712359E-09  1.440623930956E-07  6.021436774453E-07  1.208021580651E-06
  1.806633883014E-06  2.277689463374E-06  2.545570195037E-06  2.581870585156E-06
  2.401136805728E-06  2.051218384404E-06  1.600243673746E-06  1.122506040293E-06
  6.854790569216E-07  3.397926635339E-07  1.133707836205E-07  1.016186734050E-08
  0.000000000000E+00  0.000000000000E+00  0.000000000000E+00  0.000000000000E+00
  0.000000000000E+00  0.000000000000E+00  0.000000000000E+00  0.000000000000E+00
  0.000000000000E+00  0.000000000000E+00  0.000000000000E+00  0.000000000000E+00
  0.000000000000E+00  0.000000000000E+00  0.000000000000E+00  0.000000000000E+00
  0.000000000000E+00  0.000000000000E+00  0.000000000000E+00  0.000000000000E+00
  0.000000000000E+00  0.000000000000E+00  0.000000000000E+00  0.000000000000E+00
  0.000000000000E+00  0.000000000000E+00  0.000000000000E+00  0.000000000000E+00
  0.000000000000E+00  0.000000000000E+00  0.000000000000E+00  0.000000000000E+00
  0.000000000000E+00  0.000000000000E+00  0.000000000000E+00  0.000000000000E+00
  0.000000000000E+00  0.000000000000E+00  0.000000000000E+00  0.000000000000E+00
  0.000000000000E+00  0.000000000000E+00  0.000000000000E+00  0.000000000000E+00
  0.000000000000E+00  0.000000000000E+00  0.000000000000E+00  0.000000000000E+00
  0.000000000000E+00  0.000000000000E+00  0.000000000000E+00  0.000000000000E+00
  0.000000000000E+00  0.000000000000E+00  0.000000000000E+00  0.000000000000E+00
  0.000000000000E+00  0.000000000000E+00
</data>
</radfunc>
</pseudocore-charge>
<semilocal-potentials set="scalar_relativistic">
<slps n="3" l="s" rc="1.56008580902" eref="-0.760417266234">
<radfunc>
<data npts="290">
  2.949476242528E+01  2.948170765144E+01  2.944272771826E+01  2.937784622675E+01
  2.928298261682E+01  2.916252339475E+01  2.900993962360E+01  2.883649886859E+01
  2.864309765026E+01  2.841969118550E+01  2.817058220522E+01  2.790301910192E+01
  2.758402016951E+01  2.725585439866E+01  2.693300860694E+01  2.656716400071E+01
  2.615366739390E+01  2.576919930220E+01  2.534542857350E+01  2.487950754704E+01
  2.436865593061E+01  2.392584487424E+01  2.345133628959E+01  2.294400729627E+01
  2.240289661881E+01  2.182724219910E+01  2.121652035184E+01  2.073530663714E+01
  2.023423445621E+01  1.971342460787E+01  1.917311524391E+01  1.861366919661E+01
  1.803558018786E+01  1.743947766625E+01  1.682613002404E+01  1.619644596160E+01
  1.555147379248E+01  1.489239851884E+01  1.444582483365E+01  1.399398660682E+01
  1.353732802305E+01  1.307631497691E+01  1.261143337773E+01  1.214318725980E+01
  1.167209670969E+01  1.119869562625E+01  1.072352933098E+01  1.024715204982E+01
  9.770124289575E+00  9.293010134648E+00  8.816374491816E+00  8.340780312480E+00
  7.866785823248E+00  7.394941796692E+00  6.925788894864E+00  6.459855118381E+00
  5.997653393846E+00  5.539679331893E+00  5.086409187318E+00  4.638298051609E+00
  4.195778306593E+00  3.759258366095E+00  3.329121730206E+00  2.905726374134E+00
  2.489404490598E+00  2.080462601183E+00  1.679182048081E+00  1.481496015407E+00
  1.285819873021E+00  1.092182162173E+00  9.006100848853E-01  7.111295644111E-01
  5.237653114322E-01  3.385408957774E-01  1.554788234958E-01 -2.539938097971E-02
 -2.040730878702E-01 -3.805224705670E-01 -5.547284100462E-01 -7.266723955829E-01
 -8.963364222059E-01 -1.063702885347E+00 -1.228754473711E+00 -1.391474059767E+00
 -1.551844590545E+00 -1.709848977226E+00 -1.865469986112E+00 -2.018690130721E+00
 -2.169491566500E+00 -2.317855988765E+00 -2.463764535068E+00 -2.607197692898E+00
 -2.748135213877E+00 -2.886556035498E+00 -3.022438211523E+00 -3.155758852198E+00
 -3.286494075350E+00 -3.414618969510E+00 -3.540107570060E+00 -3.662932849448E+00
 -3.783066722398E+00 -3.900480066883E+00 -4.015142761708E+00 -4.127023741187E+00
 -4.236091067496E+00 -4.342312020961E+00 -4.445653208526E+00 -4.546080690485E+00
 -4.643560125387E+00 -4.738056933069E+00 -4.829536475616E+00 -4.917964256164E+00
 -5.003306135443E+00 -5.085528566223E+00 -5.164598845961E+00 -5.240485388229E+00
 -5.313158013877E+00 -5.382588263082E+00 -5.448749729728E+00 -5.511618419535E+00
 -5.571173133179E+00 -5.627395874942E+00 -5.680272286221E+00 -5.729792101335E+00
 -5.775949620276E+00 -5.818744189511E+00 -5.858180677391E+00 -5.894269925698E+00
 -5.927029153312E+00 -5.956482282661E+00 -5.982660155219E+00 -6.005600599410E+00
 -6.025348314128E+00 -6.041954534066E+00 -6.055476450145E+00 -6.065976369367E+00
 -6.073520613229E+00 -6.078178171503E+00 -6.080019147000E+00 -6.079113045263E+00
 -6.075526978773E+00 -6.069323866642E+00 -6.060560716582E+00 -6.049287075840E+00
 -6.035543732401E+00 -6.019361738029E+00 -6.000761812559E+00 -5.979754175839E+00
 -5.956338841243E+00 -5.930506393624E+00 -5.902239265002E+00 -5.871513512801E+00
 -5.838301097037E+00 -5.802572643625E+00 -5.764300669850E+00 -5.723463234450E+00
 -5.680047958476E+00 -5.634056344134E+00 -5.585508297749E+00 -5.534446740276E+00