<?xml version="1.0" encoding="UTF-8" ?>
<psml version="1.1" energy_unit="hartree" length_unit="bohr"
 uuid="5719c9b0-be6d-11e7-5aa1-800a7bd7b77d"
 xmlns="http://esl.cecam.org/PSML/ns/1.1">
<provenance creator="ONCVPSP-3.3.0+psml-3.3.0-73 (scalar-relativistic)"
 date="2017-10-31">
<annotation action="semilocal-pseudopotential-generation"
 action-cont="projectors-generation" />
<input-file name="oncvpsp-input">
<![CDATA[# atsym z nc nv iexc psfile
Hg 80 10 4 4 upf
# n l f
1 0 2.0
2 0 2.0
2 1 6.0
3 0 2.0
3 1 6.0
3 2 10.0
4 0 2.0
4 1 6.0
4 2 10.0
4 3 14.0
5 0 2.0
5 1 6.0
5 2 10.0
6 0 2.0
# lmax
3
# l rc ep ncon nbas qcut
0 1.4 0.0 4 8 9.0
1 1.45 0.0 4 8 9.0
2 1.4 0.0 4 8 9.0
3 1.6 0.1 4 8 6.8
# lloc lpopt rc5 dvloc0
4 5 1.4 0.0
# l nproj debl
0 2 1.0
1 2 2.8
2 2 1.8
3 1 1.5
# icmod fcfact rcfact
3 5.0 1.37
# epsh1 epsh2 depsh
-12.0 12.0 0.02
# rlmax drl
6.0 0.01
 0
]]>
</input-file>
</provenance>
<pseudo-atom-spec atomic-label="Hg" atomic-number="80" z-pseudo="20"
 flavor="Hamann&apos;s oncvpsp" relativity="scalar" spin-dft="no"
 core-corrections="yes">
<annotation pseudo-energy="-155.451131934" />
<exchange-correlation>
<annotation oncvpsp-xc-code="4" oncvpsp-xc-type="GGA -- Perdew-Burke-Ernzerhof" />
<libxc-info number-of-functionals="2">
<functional name="Perdew, Burke &amp; Ernzerhof (GGA)" type="exchange" id="101" />
<functional name="Perdew, Burke &amp; Ernzerhof (GGA)" type="correlation"
 id="130" />
</libxc-info>
</exchange-correlation>
<valence-configuration total-valence-charge="20">
<shell n="5" l="s" occupation="2" />
<shell n="5" l="p" occupation="6" />
<shell n="5" l="d" occupation="10" />
<shell n="6" l="s" occupation="2" />
</valence-configuration>
</pseudo-atom-spec>
<grid npts="457">
<annotation type="sampled from oncvpsp log grid"
 recipe="r(i:1..N) = r1*exp(a*(i-1)) + r=0; resampled"
 recipe-cont="r1: scale; a: step" scale="0.625000000000E-05"
 step="0.119285708653E-01" delta="0.500000000000E-02" rmax="44.1080184274" />
<grid-data>
  0.000000000000E+00  5.036716794685E-03  1.006044653004E-02  1.509227403831E-02
  2.009495242827E-02  2.520674221625E-02  3.050738058830E-02  3.562473008824E-02
  4.110718453678E-02  4.631512683008E-02  5.156410335150E-02  5.672722906228E-02
  6.240733975628E-02  6.784209610731E-02  7.287563178056E-02  7.828262999150E-02
  8.409079974550E-02  8.925880031034E-02  9.474441267004E-02  1.005671564146E-01
  1.067477507570E-01  1.119646129040E-01  1.174364279700E-01  1.231756557421E-01
  1.291953649286E-01  1.355092629178E-01  1.421317269910E-01  1.473101156723E-01
  1.526771723584E-01  1.582397709279E-01  1.640050357007E-01  1.699803505620E-01
  1.761733684197E-01  1.825920210056E-01  1.892445290339E-01  1.961394127302E-01
  2.032855027437E-01  2.106919514570E-01  2.157788979330E-01  2.209886636447E-01
  2.263242139397E-01  2.317885857611E-01  2.373848893757E-01  2.431163101448E-01
  2.489861103369E-01  2.549976309849E-01  2.611542937874E-01  2.674596030566E-01
  2.739171477128E-01  2.805306033271E-01  2.873037342139E-01  2.942403955727E-01
  3.013445356834E-01  3.086201981530E-01  3.160715242172E-01  3.237027550979E-01
  3.315182344170E-01  3.395224106687E-01  3.477198397519E-01  3.561151875629E-01
  3.647132326514E-01  3.735188689406E-01  3.825371085123E-01  3.917730844602E-01
  4.012320538114E-01  4.109194005186E-01  4.208406385247E-01  4.258907261870E-01
  4.310014149013E-01  4.361734318801E-01  4.414075130626E-01  4.467044032194E-01
  4.520648560580E-01  4.574896343307E-01  4.629795099427E-01  4.685352640620E-01
  4.741576872307E-01  4.798475794775E-01  4.856057504312E-01  4.914330194364E-01
  4.973302156697E-01  5.032981782577E-01  5.093377563968E-01  5.154498094735E-01
  5.216352071872E-01  5.278948296735E-01  5.342295676296E-01  5.406403224411E-01
  5.471280063104E-01  5.536935423861E-01  5.603378648948E-01  5.670619192735E-01
  5.738666623048E-01  5.807530622524E-01  5.877220989995E-01  5.947747641875E-01
  6.019120613577E-01  6.091350060940E-01  6.164446261671E-01  6.238419616811E-01
  6.313280652213E-01  6.389040020040E-01  6.465708500280E-01  6.543297002283E-01
  6.621816566311E-01  6.701278365107E-01  6.781693705488E-01  6.863074029954E-01
  6.945430918313E-01  7.028776089333E-01  7.113121402405E-01  7.198478859234E-01
  7.284860605545E-01  7.372278932811E-01  7.460746280005E-01  7.550275235365E-01
  7.640878538189E-01  7.732569080648E-01  7.825359909615E-01  7.919264228531E-01
  8.014295399273E-01  8.110466944064E-01  8.207792547393E-01  8.306286057962E-01
  8.405961490657E-01  8.506833028545E-01  8.608915024888E-01  8.712222005187E-01
  8.816768669249E-01  8.922569893280E-01  9.029640731999E-01  9.137996420783E-01
  9.247652377832E-01  9.358624206366E-01  9.470927696843E-01  9.584578829205E-01
  9.699593775155E-01  9.815988900457E-01  9.933780767263E-01  1.005298613647E+00
  1.017362197011E+00  1.029570543375E+00  1.041925389895E+00  1.054428494574E+00
  1.067081636509E+00  1.079886616147E+00  1.092845255541E+00  1.105959398607E+00
  1.119230911391E+00  1.132661682327E+00  1.146253622515E+00  1.160008665985E+00
  1.173928769977E+00  1.188015915217E+00  1.202272106200E+00  1.216699371474E+00
  1.231299763932E+00  1.246075361099E+00  1.261028265432E+00  1.276160604617E+00
  1.291474531873E+00  1.306972226255E+00  1.322655892970E+00  1.338527763686E+00
  1.354590096850E+00  1.370845178012E+00  1.387295320148E+00  1.403942863990E+00
  1.420790178358E+00  1.437839660498E+00  1.455093736424E+00  1.472554861261E+00
  1.490225519597E+00  1.508108225832E+00  1.526205524542E+00  1.544519990836E+00
  1.563054230726E+00  1.581810881495E+00  1.600792612073E+00  1.620002123418E+00
  1.639442148899E+00  1.659115454686E+00  1.679024840142E+00  1.699173138224E+00
  1.719563215882E+00  1.740197974473E+00  1.761080350166E+00  1.782213314368E+00
  1.803599874141E+00  1.825243072631E+00  1.847145989502E+00  1.869311741376E+00
  1.891743482273E+00  1.914444404060E+00  1.937417736909E+00  1.960666749752E+00
  1.984194750749E+00  2.008005087758E+00  2.032101148811E+00  2.056486362596E+00
  2.081164198948E+00  2.106138169335E+00  2.131411827367E+00  2.156988769295E+00
  2.182872634527E+00  2.209067106141E+00  2.235575911415E+00  2.262402822352E+00
  2.289551656220E+00  2.317026276095E+00  2.344830591408E+00  2.372968558505E+00
  2.401444181207E+00  2.430261511381E+00  2.459424649518E+00  2.488937745312E+00
  2.518804998256E+00  2.549030658235E+00  2.579619026134E+00  2.610574454447E+00
  2.641901347901E+00  2.673604164076E+00  2.705687414044E+00  2.738155663013E+00
  2.771013530969E+00  2.804265693341E+00  2.837916881661E+00  2.871971884241E+00
  2.906435546852E+00  2.941312773414E+00  2.976608526695E+00  3.012327829015E+00
  3.048475762963E+00  3.085057472119E+00  3.122078161784E+00  3.159543099726E+00
  3.197457616923E+00  3.235827108326E+00  3.274657033625E+00  3.313952918029E+00
  3.353720353045E+00  3.393964997282E+00  3.434692577249E+00  3.475908888176E+00
  3.517619794834E+00  3.559831232372E+00  3.602549207161E+00  3.645779797647E+00
  3.689529155219E+00  3.733803505081E+00  3.778609147142E+00  3.823952456908E+00
  3.869839886391E+00  3.916277965027E+00  3.963273300608E+00  4.010832580215E+00
  4.058962571178E+00  4.107670122032E+00  4.156962163496E+00  4.206845709458E+00
  4.257327857972E+00  4.308415792267E+00  4.360116781774E+00  4.412438183156E+00
  4.465387441354E+00  4.518972090650E+00  4.573199755738E+00  4.628078152807E+00
  4.683615090640E+00  4.739818471728E+00  4.796696293389E+00  4.854256648909E+00
  4.912507728696E+00  4.971457821441E+00  5.031115315298E+00  5.091488699081E+00
  5.152586563470E+00  5.214417602232E+00  5.276990613459E+00  5.340314500820E+00
  5.404398274830E+00  5.469251054128E+00  5.534882066778E+00  5.601300651579E+00
  5.668516259398E+00  5.736538454511E+00  5.805376915965E+00  5.875041438956E+00
  5.945541936224E+00  6.016888439459E+00  6.089091100732E+00  6.162160193941E+00
  6.236106116268E+00  6.310939389663E+00  6.386670662339E+00  6.463310710287E+00
  6.540870438811E+00  6.619360884077E+00  6.698793214686E+00  6.779178733262E+00
  6.860528878061E+00  6.942855224598E+00  7.026169487293E+00  7.110483521140E+00
  7.195809323394E+00  7.282159035275E+00  7.369544943698E+00  7.457979483022E+00
  7.547475236819E+00  7.638044939660E+00  7.729701478936E+00  7.822457896684E+00
  7.916327391444E+00  8.011323320141E+00  8.107459199983E+00  8.204748710383E+00
  8.303205694907E+00  8.402844163246E+00  8.503678293205E+00  8.605722432724E+00
  8.708991101916E+00  8.813498995139E+00  8.919260983081E+00  9.026292114878E+00
  9.134607620256E+00  9.244222911700E+00  9.355153586640E+00  9.467415429680E+00
  9.581024414836E+00  9.695996707814E+00  9.812348668308E+00  9.930096852327E+00
  1.004925801456E+01  1.016984911073E+01  1.029188730006E+01  1.041538994766E+01
  1.054037462703E+01  1.066685912256E+01  1.079486143203E+01  1.092439976921E+01
  1.105549256644E+01  1.118815847724E+01  1.132241637897E+01  1.145828537551E+01
  1.159578480002E+01  1.173493421762E+01  1.187575342823E+01  1.201826246937E+01
  1.216248161900E+01  1.230843139843E+01  1.245613257521E+01  1.260560616611E+01
  1.275687344011E+01  1.290995592139E+01  1.306487539244E+01  1.322165389715E+01
  1.338031374392E+01  1.354087750885E+01  1.370336803895E+01  1.386780845542E+01
  1.403422215689E+01  1.420263282277E+01  1.437306441664E+01  1.454554118964E+01
  1.472008768392E+01  1.489672873612E+01  1.507548948096E+01  1.525639535473E+01
  1.543947209899E+01  1.562474576417E+01  1.581224271334E+01  1.600198962590E+01
  1.619401350141E+01  1.638834166343E+01  1.658500176339E+01  1.678402178455E+01
  1.698543004597E+01  1.718925520652E+01  1.739552626900E+01  1.760427258423E+01
  1.781552385524E+01  1.802931014150E+01  1.824566186320E+01  1.846460980556E+01
  1.868618512322E+01  1.891041934470E+01  1.913734437684E+01  1.936699250936E+01
  1.959939641947E+01  1.983458917651E+01  2.007260424662E+01  2.031347549758E+01
  2.055723720355E+01  2.080392405000E+01  2.105357113860E+01  2.130621399226E+01
  2.156188856017E+01  2.182063122289E+01  2.208247879756E+01  2.234746854313E+01
  2.261563816565E+01  2.288702582364E+01  2.316167013352E+01  2.343961017513E+01
  2.372088549723E+01  2.400553612319E+01  2.429360255667E+01  2.458512578735E+01
  2.488014729680E+01  2.517870906436E+01  2.548085357313E+01  2.578662381601E+01
  2.609606330180E+01  2.640921606143E+01  2.672612665416E+01  2.704684017401E+01
  2.737140225610E+01  2.769985908317E+01  2.803225739217E+01  2.836864448088E+01
  2.870906821465E+01  2.905357703323E+01  2.940221995762E+01  2.975504659712E+01
  3.011210715628E+01  3.047345244216E+01  3.083913387146E+01  3.120920347792E+01
  3.158371391965E+01  3.196271848669E+01  3.234627110853E+01  3.273442636183E+01
  3.312723947817E+01  3.352476635191E+01  3.392706354814E+01  3.433418831071E+01
  3.474619857044E+01  3.516315295329E+01  3.558511078873E+01  3.601213211819E+01
  3.644427770361E+01  3.688160903605E+01  3.732418834449E+01  3.777207860462E+01
  3.822534354788E+01  3.868404767045E+01  3.914825624250E+01  3.961803531741E+01
  4.009345174121E+01  4.057457316211E+01  4.106146804005E+01  4.155420565653E+01
  4.205285612441E+01  4.255749039791E+01  4.306818028268E+01  4.358499844607E+01
  4.410801842743E+01
</grid-data>
</grid>
<valence-charge total-charge="20" is-unscreening-charge="yes"
 rescaled-to-z-pseudo="no">
<radfunc>
<data npts="457">
  1.526541582959E+00  1.528185665136E+00  1.533101498572E+00  1.541306548083E+00
  1.552722172513E+00  1.567746300747E+00  1.586917052317E+00  1.608900415716E+00
  1.636248886452E+00  1.665874309596E+00  1.699337848093E+00  1.735795039047E+00
  1.779972861042E+00  1.826248457500E+00  1.872615161078E+00  1.926193934822E+00
  1.988117807244E+00  2.047037579440E+00  2.113531710541E+00  2.188585433273E+00
  2.273314063003E+00  2.348905948769E+00  2.432216935226E+00  2.524044492779E+00
  2.625268889511E+00  2.736861413483E+00  2.859893196876E+00  2.960379724577E+00
  3.068503795208E+00  3.184846936981E+00  3.310033197160E+00  3.444731575510E+00
  3.589658400421E+00  3.745579583371E+00  3.913312669764E+00  4.093728583031E+00
  4.287752933594E+00  4.496366734392E+00  4.644057374534E+00  4.799012231456E+00
  4.961562302201E+00  5.132048630821E+00  5.310821742938E+00  5.498240902805E+00
  5.694673166646E+00  5.900492203322E+00  6.116076850507E+00  6.341809371620E+00
  6.578073375735E+00  6.825251359701E+00  7.083721828742E+00  7.353855949060E+00
  7.636013683446E+00  7.930539358818E+00  8.237756613101E+00  8.557962668133E+00
  8.891421875560E+00  9.238358484279E+00  9.598948581156E+00  9.973311161952E+00
  1.036149829691E+01  1.076348436588E+01  1.117915435172E+01  1.160829119811E+01
  1.205056226034E+01  1.250550490467E+01  1.297251134443E+01  1.321030498622E+01
  1.345081284031E+01  1.369391099657E+01  1.393946343728E+01  1.418732152000E+01
  1.443732346354E+01  1.468929383993E+01  1.494304307552E+01  1.519836696470E+01
  1.545504619985E+01  1.571284592181E+01  1.597151529506E+01  1.623078711234E+01
  1.649037743390E+01  1.674998526654E+01  1.700929228819E+01  1.726796262408E+01
  1.752564268063E+01  1.778196104380E+01  1.803652844850E+01  1.828893782626E+01
  1.853876443825E+01  1.878556610101E+01  1.902888351235E+01  1.926824068479E+01
  1.950314549402E+01  1.973309034942E+01  1.995755299397E+01  2.017599743996E+01
  2.038787504695E+01  2.059262574755E+01  2.078967942621E+01  2.097845745509E+01
  2.115837439032E+01  2.132883983081E+01  2.148926044047E+01  2.163904213329E+01
  2.177759241924E+01  2.190432290701E+01  2.201865195807E+01  2.212000748419E+01
  2.220782987861E+01  2.228157506880E+01  2.234071767637E+01  2.238475426737E+01
  2.241320667373E+01  2.242562536434E+01  2.242159284183E+01  2.240072703883E+01
  2.236268468554E+01  2.230716461847E+01  2.223391099848E+01  2.214271640507E+01
  2.203342477288E+01  2.190593413563E+01  2.176019914281E+01  2.159623331487E+01
  2.141411100333E+01  2.121396902405E+01  2.099600793383E+01  2.076049292310E+01
  2.050775430080E+01  2.023818755113E+01  1.995225294625E+01  1.965047470328E+01
  1.933343967923E+01  1.900179560228E+01  1.865624884328E+01  1.829756173633E+01
  1.792654946263E+01  1.754407651605E+01  1.715105277388E+01  1.674842919926E+01
  1.633719320576E+01  1.591836371653E+01  1.549298595257E+01  1.506212598572E+01
  1.462686509246E+01  1.418829394452E+01  1.374750667186E+01  1.330559483268E+01
  1.286364132478E+01  1.242271427141E+01  1.198386091519E+01  1.154810155395E+01
  1.111642355350E+01  1.068977547520E+01  1.026906135892E+01  9.855135206817E+00
  9.448795718331E+00  9.050781332585E+00  8.661765640488E+00  8.282353234526E+00
  7.913076069215E+00  7.554390408718E+00  7.206674439662E+00  6.870226626065E+00
  6.545264879090E+00  6.231926606665E+00  5.930269696665E+00  5.640274472439E+00
  5.361848163306E+00  5.094836461254E+00  4.839039027878E+00  4.594216923521E+00
  4.360101786429E+00  4.136409279369E+00  3.922841924887E+00  3.719091839864E+00
  3.524843256268E+00  3.339774840062E+00  3.163561812027E+00  2.995877875104E+00
  2.836396954069E+00  2.684794754363E+00  2.540750147700E+00  2.403946392730E+00
  2.274072199573E+00  2.150822647520E+00  2.033899964410E+00  1.923014179028E+00
  1.817883654156E+00  1.718235510661E+00  1.623805951733E+00  1.534340496295E+00
  1.449594130364E+00  1.369331384771E+00  1.293326347304E+00  1.221362616892E+00
  1.153233207058E+00  1.088740405392E+00  1.027695595354E+00  9.699190462573E-01
  9.152396768335E-01  8.634947973090E-01  8.145298345131E-01  7.681980440897E-01
  7.243602134843E-01  6.828843589877E-01  6.436454197402E-01  6.065249512560E-01
  5.714108206966E-01  5.381969058129E-01  5.067827991988E-01  4.770735192311E-01
  4.489792288356E-01  4.224149630011E-01  3.973003657650E-01  3.735594372190E-01
  3.511202909254E-01  3.299149219952E-01  3.098789859568E-01  2.909515884374E-01
  2.730750855883E-01  2.561948951067E-01  2.402593176409E-01  2.252193683132E-01
  2.110286180491E-01  1.976430443693E-01  1.850208912727E-01  1.731225378220E-01
  1.619103750294E-01  1.513486906354E-01  1.414035613680E-01  1.320427522773E-01
  1.232356227390E-01  1.149530387350E-01  1.071672910246E-01  9.985201883412E-02
  9.298213870415E-02  8.653377814949E-02  8.048421379837E-02  7.481181369549E-02
  6.949598346051E-02  6.451711602099E-02  5.985654464058E-02  5.549649898361E-02
  5.142006396979E-02  4.761114118658E-02  4.405441264050E-02  4.073530664181E-02
  3.763996563085E-02  3.475521576709E-02  3.206853811570E-02  2.956804127932E-02
  2.724243533592E-02  2.508100695632E-02  2.307359558785E-02  2.121057060268E-02
  1.948280932139E-02  1.788167583363E-02  1.639900054852E-02  1.502706041761E-02
  1.375855978240E-02  1.258661180705E-02  1.150472046463E-02  1.050676305193E-02
  9.586973213904E-03  8.739924463888E-03  7.960514189788E-03  7.243948140111E-03
  6.585725386146E-03  5.981623758663E-03  5.427685758802E-03  4.920204943540E-03
  4.455712786379E-03  4.030966013692E-03  3.642934416585E-03  3.288789137295E-03
  2.965891427993E-03  2.671781878670E-03  2.404170109326E-03  2.160924920321E-03
  1.940064893285E-03  1.739749433613E-03  1.558270244275E-03  1.394043219511E-03
  1.245600745936E-03  1.111584397756E-03  9.907380120942E-04  8.819011299770E-04
  7.840027881972E-04  6.960556471877E-04  6.171504400624E-04  5.464507281834E-04
  4.831879489420E-04  4.266567418591E-04  3.762105396225E-04  3.312574112408E-04
  2.912561450932E-04  2.557125602682E-04  2.241760351961E-04  1.962362431722E-04
  1.715200849327E-04  1.496888089743E-04  1.304353107894E-04  1.134816026307E-04
  9.857644581172E-05  8.549313789626E-05  7.402744744061E-05  6.399568922032E-05
  5.523293311294E-05  4.759134001953E-05  4.093861839770E-05  3.515659515312E-05
  3.013989479906E-05  2.579472094902E-05  2.203773436009E-05  1.879502189716E-05
  1.600115094290E-05  1.359830393776E-05  1.153548789923E-05  9.767813940512E-06
  8.255841986944E-06  6.964986072220E-06  5.864975786872E-06  4.929369646240E-06
  4.135116344417E-06  3.462160062567E-06  2.893086203680E-06  2.412804129810E-06
  2.008263680964E-06  1.668202455748E-06  1.382921031588E-06  1.144083495655E-06
  9.445408456028E-07  7.781750011285E-07  6.397613422826E-07  5.248478580220E-07
  4.296491480628E-07  3.509536724363E-07  2.860427859879E-07  2.326202292875E-07
  1.887508730167E-07  1.528076299230E-07  1.234255570242E-07  9.946227111789E-08
  7.996389305828E-08  6.413582101850E-08  5.131771039789E-08  4.096210853975E-08
  3.261625637921E-08  2.590662694915E-08  2.052582274122E-08  1.622150065653E-08
  1.278703508862E-08  1.005366695344E-08  7.883919597758E-09  6.166091843465E-09
  4.809664309124E-09  3.741477919950E-09  2.902563482704E-09  2.245518650513E-09
  1.732343802172E-09  1.332661557674E-09  1.022256073117E-09  7.818781105263E-10
  5.962703493512E-10  4.533746663577E-10  3.436893121694E-10  2.597491927709E-10
  1.957069450228E-10  1.469962850933E-10  1.100623035878E-10  8.214606549207E-11
  6.111312085741E-11  4.531740810237E-11  3.349359206167E-11  2.467217239050E-11
  1.811276536566E-11  1.322049597915E-11  9.640502611357E-12  7.005302530295E-12
  5.072375134284E-12  3.659610045029E-12  2.630744819022E-12  1.884188528575E-12
  1.344474959408E-12  9.557506054595E-13  6.768313600556E-13  4.774640429504E-13
  3.355097980784E-13  2.348301539682E-13  1.637065906677E-13  1.136635936586E-13
  7.859565414967E-14  5.412231533848E-14  3.711362506145E-14  2.534240242822E-14
  1.723048667364E-14  1.166434466289E-14  7.861647957681E-15  5.275145257607E-15
  3.523706188416E-15  2.343073765045E-15  1.550849033785E-15  1.021707006231E-15
  6.699342890890E-16  4.371821642082E-16  2.839175014929E-16  1.834831535545E-16
  1.179910385644E-16  7.549615436466E-17  4.806151685753E-17  3.043970997671E-17
  1.917904922023E-17  1.202071040447E-17  7.494150807826E-18  4.647038341671E-18
  2.865916511911E-18  1.757744891482E-18  1.072073156407E-18  6.501898070052E-19
  3.920790051717E-19  2.350687491257E-19  1.401115391556E-19  8.301949061015E-20
  4.889702740301E-20  2.862528260994E-20  1.665521891871E-20  9.630571078672E-21
  5.533785602354E-21  3.159571131208E-21  1.792406002451E-21  0.000000000000E+00
  0.000000000000E+00  0.000000000000E+00  0.000000000000E+00  0.000000000000E+00
  0.000000000000E+00  0.000000000000E+00  0.000000000000E+00  0.000000000000E+00
  0.000000000000E+00  0.000000000000E+00  0.000000000000E+00  0.000000000000E+00
  0.000000000000E+00  0.000000000000E+00  0.000000000000E+00  0.000000000000E+00
  0.000000000000E+00  0.000000000000E+00  0.000000000000E+00  0.000000000000E+00
  0.000000000000E+00  0.000000000000E+00  0.000000000000E+00  0.000000000000E+00
  0.000000000000E+00
</data>
</radfunc>
</valence-charge>
<pseudocore-charge matching-radius="0.764087853819"
 number-of-continuous-derivatives="4">
<annotation model-charge-form="Teter function with specified parameters" />
<radfunc>
<data npts="290">
  1.150123623506E+02  1.150039501122E+02  1.149788035403E+02  1.149368518753E+02
  1.148785276884E+02  1.148018428492E+02  1.147041176423E+02  1.145922256608E+02
  1.144532792241E+02  1.143030788325E+02  1.141338090526E+02  1.139498626349E+02
  1.137276060735E+02  1.134955442943E+02  1.132637841781E+02  1.129969081320E+02
  1.126896930180E+02  1.123985849536E+02  1.120714395306E+02  1.117039156646E+02
  1.112911816191E+02  1.109248543307E+02  1.105231508961E+02  1.100827983288E+02
  1.096002508842E+02  1.090716737707E+02  1.084929273734E+02  1.080232738668E+02
  1.075208950350E+02  1.069836791527E+02  1.064094041467E+02  1.057957359928E+02
  1.051402278805E+02  1.044403203118E+02  1.036933423220E+02  1.028965140345E+02
  1.020469507880E+02  1.011416691054E+02  1.005056786114E+02  9.984262854358E+01
  9.915157353798E+01  9.843155600338E+01  9.768160837731E+01  9.690075570035E+01
  9.608801853470E+01  9.524241625369E+01  9.436297072979E+01  9.344871044919E+01
  9.249867508154E+01  9.151192053318E+01  9.048752451239E+01  8.942459263391E+01
  8.832226508933E+01  8.717972390772E+01  8.599620082878E+01  8.477098580716E+01
  8.350343616295E+01  8.219298638772E+01  8.083915860967E+01  7.944157371360E+01
  7.799996310279E+01  7.651418107912E+01  7.498421780605E+01  7.341021280496E+01
  7.179246891951E+01  7.013146666530E+01  6.842787886188E+01  6.756038185716E+01
  6.668258542242E+01  6.579463433366E+01  6.489668815257E+01  6.398892167694E+01
  6.307152538362E+01  6.214470586223E+01  6.120868623759E+01  6.026370657871E+01
  5.931002429226E+01  5.834791449794E+01  5.737767038341E+01  5.639960353620E+01
  5.541404424970E+01  5.442134180055E+01  5.342186469432E+01  5.241600087649E+01
  5.140415790552E+01  5.038676308460E+01  4.936426354889E+01  4.833712630465E+01
  4.730583821664E+01  4.627090594048E+01  4.523285579594E+01  4.419223357785E+01
  4.314960430071E+01  4.210555187344E+01  4.106067870062E+01  4.001560520675E+01
  3.897096927987E+01  3.792742563137E+01  3.688564506875E+01  3.584631367832E+01
  3.481013191498E+01  3.377781359684E+01  3.275008480211E+01  3.172768266681E+01
  3.071135408158E+01  2.970185428675E+01  2.869994536514E+01  2.770639463269E+01
  2.672197292762E+01  2.574745279931E+01  2.478360659915E+01  2.383120447603E+01
  2.289101228011E+01  2.196378937938E+01  2.105028639439E+01  2.015124285746E+01
  1.926738480376E+01  1.839942230258E+01  1.754804693821E+01  1.671392925089E+01
  1.589771614944E+01  1.510002830818E+01  1.432145756189E+01  1.356256431356E+01
  1.282387497072E+01  1.210587942721E+01  1.140902860785E+01  1.073373209478E+01
  1.008035585439E+01  9.449220084852E+00  8.840597204468E+00  8.254710001372E+00
  7.691729965344E+00  7.151775822355E+00  6.634912292196E+00  6.141149089007E+00
  5.670440183770E+00  5.222683346753E+00  4.797719986587E+00  4.395335301008E+00
  4.015258752391E+00  3.657164878958E+00  3.320674449999E+00  3.005355970603E+00
  2.710727538288E+00  2.436259050469E+00  2.181374758095E+00  1.945456156892E+00
  1.727845203583E+00  1.527847840281E+00  1.344737805969E+00  1.177760709673E+00
  1.026138335675E+00  8.890731469666E-01  7.657529491940E-01  6.553556736701E-01
  5.570542347059E-01  4.700214136720E-01  3.934347198727E-01  3.264811766303E-01
  2.683619800007E-01  2.182969773487E-01  1.755289136751E-01  1.393273951528E-01
  1.089925218421E-01  8.385814502730E-02  6.329470906031E-02  4.671164296784E-02
  3.355927335288E-02  2.333023720144E-02  1.556038100296E-02  9.829140970365E-03
  5.759407949713E-03  3.016889655971E-03  1.308991958616E-03  3.832498461073E-04
  2.534718802545E-05  5.677224730964E-05  3.321628329811E-04  7.364007956535E-04
  1.181520041559E-03  1.603495190555E-03  1.958979280782E-03  2.222058423752E-03
  2.381088988397E-03  2.435678750662E-03  2.393867561124E-03  2.269555598887E-03
  2.080218404922E-03  1.844937895457E-03  1.582767776964E-03  1.311440597066E-03
  1.046412483076E-03  8.002308721590E-04  5.822006536916E-04  3.983155326063E-04
  2.514144463744E-04  1.415178271345E-04  6.629560947573E-05  2.161825802411E-05
  2.143729009966E-06  1.897069134656E-06  1.480505746365E-05  3.515556534253E-05
  5.795970428083E-05  7.920383971840E-05  9.598761537975E-05  1.065526978210E-04
  1.102144845601E-04  1.072150624333E-04  9.851990152354E-05  8.558290528564E-05
  7.010444638105E-05  5.380500247724E-05  3.823323008541E-05  2.462218326728E-05
  1.380141400219E-05  6.166464785233E-06  1.701377917312E-06  4.485326870287E-08
  5.870422787767E-07  2.581980139363E-06  5.260460050766E-06  7.929676557454E-06
  1.004895180165E-05  1.127488833258E-05  1.147382907543E-05  1.070396263196E-05
  9.173226158970E-06  7.181860144578E-06  5.059749631760E-06  3.108437200412E-06
  1.556025403329E-06  5.304153979935E-07  5.292739421658E-08  0.000000000000E+00
  0.000000000000E+00  0.000000000000E+00  0.000000000000E+00  0.000000000000E+00
  0.000000000000E+00  0.000000000000E+00  0.000000000000E+00  0.000000000000E+00
  0.000000000000E+00  0.000000000000E+00  0.000000000000E+00  0.000000000000E+00
  0.000000000000E+00  0.000000000000E+00  0.000000000000E+00  0.000000000000E+00
  0.000000000000E+00  0.000000000000E+00  0.000000000000E+00  0.000000000000E+00
  0.000000000000E+00  0.000000000000E+00  0.000000000000E+00  0.000000000000E+00
  0.000000000000E+00  0.000000000000E+00  0.000000000000E+00  0.000000000000E+00
  0.000000000000E+00  0.000000000000E+00  0.000000000000E+00  0.000000000000E+00
  0.000000000000E+00  0.000000000000E+00  0.000000000000E+00  0.000000000000E+00
  0.000000000000E+00  0.000000000000E+00  0.000000000000E+00  0.000000000000E+00
  0.000000000000E+00  0.000000000000E+00  0.000000000000E+00  0.000000000000E+00
  0.000000000000E+00  0.000000000000E+00  0.000000000000E+00  0.000000000000E+00
  0.000000000000E+00  0.000000000000E+00  0.000000000000E+00  0.000000000000E+00
  0.000000000000E+00  0.000000000000E+00
</data>
</radfunc>
</pseudocore-charge>
<semilocal-potentials set="scalar_relativistic">
<slps n="5" l="s" rc="1.40394286399" eref="-4.34312697296">
<radfunc>
<data npts="290">
 -1.734271358441E+00 -1.740646444269E+00 -1.759690086343E+00 -1.791416050710E+00
 -1.835431997468E+00 -1.893142486906E+00 -1.966422099370E+00 -2.049961924920E+00
 -2.153165565005E+00 -2.264066422201E+00 -2.388230744402E+00 -2.522189607857E+00
 -2.682713616253E+00 -2.848780860770E+00 -3.013084560310E+00 -3.200394553077E+00
 -3.413552673109E+00 -3.613141815788E+00 -3.834708754523E+00 -4.080241085359E+00
 -4.351799927970E+00 -4.589202692311E+00 -4.845700572750E+00 -5.122374724949E+00
 -5.420282764554E+00 -5.740439923956E+00 -6.083797464091E+00 -6.357064071172E+00
 -6.644191563723E+00 -6.945459575878E+00 -7.261097262638E+00 -7.591275786568E+00
 -7.936100607234E+00 -8.295603680073E+00 -8.669735688684E+00 -9.058358450488E+00
 -9.461237649519E+00 -9.878036060552E+00 -1.016341884608E+01 -1.045463171356E+01
 -1.075149122025E+01 -1.105379024430E+01 -1.136129759789E+01 -1.167375775361E+01
 -1.199089069087E+01 -1.231239186756E+01 -1.263793232101E+01 -1.296715890041E+01
 -1.329969463144E+01 -1.363513921162E+01 -1.397306963322E+01 -1.431304092844E+01
 -1.465458702958E+01 -1.499722173486E+01 -1.534043976889E+01 -1.568371792475E+01
 -1.602651627326E+01 -1.636827942362E+01 -1.670843781852E+01 -1.704640904604E+01
 -1.738159915028E+01 -1.771340392263E+01 -1.804121015598E+01 -1.836439684482E+01
 -1.868233631562E+01 -1.899439527332E+01 -1.929993575197E+01 -1.945006113035E+01
 -1.959831595989E+01 -1.974461953913E+01 -1.988889101286E+01 -2.003104938868E+01
 -2.017101355177E+01 -2.030870227795E+01 -2.044403424501E+01 -2.057692804249E+01
 -2.070730217982E+01 -2.083507509315E+01 -2.096016515083E+01 -2.108249065776E+01
 -2.120196985877E+01 -2.131852094122E+01 -2.143206203693E+01 -2.154251122387E+01
 -2.164978652764E+01 -2.175380592312E+01 -2.185448733655E+01 -2.195174864834E+01
 -2.204550769696E+01 -2.213568228417E+01 -2.222219018208E+01 -2.230494914227E+01
 -2.238387690756E+01 -2.245889122655E+01 -2.252990987172E+01 -2.259685066120E+01
 -2.265963148485E+01 -2.271817033507E+01 -2.277238534277E+01 -2.282219481898E+01
 -2.286751730262E+01 -2.290827161480E+01 -2.294437692031E+01 -2.297575279643E+01
 -2.300231930991E+01 -2.302399710225E+01 -2.304070748384E+01 -2.305237253733E+01
 -2.305891523069E+01 -2.306025954030E+01 -2.305633058430E+01 -2.304705476689E+01
 -2.303235993357E+01 -2.301217553792E+01 -2.298643282012E+01 -2.295506499773E+01
 -2.291800746900E+01 -2.287519802927E+01 -2.282657710091E+01 -2.277208797735E+01
 -2.271167708201E+01 -2.264529424269E+01 -2.257289298258E+01 -2.249443082875E+01
 -2.240986963947E+01 -2.231917595168E+01 -2.222232135034E+01 -2.211928286143E+01
 -2.201004337077E+01 -2.189459207100E+01 -2.177292493960E+01 -2.164504525083E+01
 -2.151096412531E+01 -2.137070112124E+01 -2.122428487169E+01 -2.107175377355E+01
 -2.091315673415E+01 -2.074855398271E+01 -2.057801795521E+01 -2.040163426247E+01
 -2.021950275337E+01 -2.003173868698E+01 -1.983847403035E+01 -1.963985890146E+01
 -1.943606318042E+01 -1.922727831641E+01 -1.901371936169E+01 -1.879562726992E+01
 -1.857327150042E+01 -1.834695297610E+01 -1.811700744768E+01 -1.788380932175E+01