<?xml version="1.0" encoding="UTF-8" ?>
<psml version="1.1" energy_unit="hartree" length_unit="bohr"
 uuid="04e64f00-be46-11e7-7afe-a40bdbe3ccde"
 xmlns="http://esl.cecam.org/PSML/ns/1.1">
<provenance creator="ONCVPSP-3.3.0+psml-3.3.0-73 (scalar-relativistic)"
 date="2017-10-31">
<annotation action="semilocal-pseudopotential-generation"
 action-cont="projectors-generation" />
<input-file name="oncvpsp-input">
<![CDATA[# atsym z nc nv iexc psfile
Hg 80 10 4 4 upf
# n l f
1 0 2.0
2 0 2.0
2 1 6.0
3 0 2.0
3 1 6.0
3 2 10.0
4 0 2.0
4 1 6.0
4 2 10.0
4 3 14.0
5 0 2.0
5 1 6.0
5 2 10.0
6 0 2.0
# lmax
3
# l rc ep ncon nbas qcut
0 1.6 0.0 4 8 8.0
1 1.6 0.0 4 8 8.2
2 1.45 0.0 4 8 8.8
3 1.6 0.1 4 8 6.8
# lloc lpopt rc5 dvloc0
4 5 1.45 0.0
# l nproj debl
0 2 1.0
1 2 2.8
2 2 1.8
3 1 1.5
# icmod fcfact rcfact
3 5.0 1.37
# epsh1 epsh2 depsh
-12.0 12.0 0.02
# rlmax drl
6.0 0.01
 0
]]>
</input-file>
</provenance>
<pseudo-atom-spec atomic-label="Hg" atomic-number="80" z-pseudo="20"
 flavor="Hamann&apos;s oncvpsp" relativity="scalar" spin-dft="no"
 core-corrections="yes">
<annotation pseudo-energy="-156.096621131" />
<exchange-correlation>
<annotation oncvpsp-xc-code="4" oncvpsp-xc-type="GGA -- Perdew-Burke-Ernzerhof" />
<libxc-info number-of-functionals="2">
<functional name="Perdew, Burke &amp; Ernzerhof (GGA)" type="exchange" id="101" />
<functional name="Perdew, Burke &amp; Ernzerhof (GGA)" type="correlation"
 id="130" />
</libxc-info>
</exchange-correlation>
<valence-configuration total-valence-charge="20">
<shell n="5" l="s" occupation="2" />
<shell n="5" l="p" occupation="6" />
<shell n="5" l="d" occupation="10" />
<shell n="6" l="s" occupation="2" />
</valence-configuration>
</pseudo-atom-spec>
<grid npts="457">
<annotation type="sampled from oncvpsp log grid"
 recipe="r(i:1..N) = r1*exp(a*(i-1)) + r=0; resampled"
 recipe-cont="r1: scale; a: step" scale="0.625000000000E-05"
 step="0.119285708653E-01" delta="0.500000000000E-02" rmax="44.1080184274" />
<grid-data>
  0.000000000000E+00  5.036716794685E-03  1.006044653004E-02  1.509227403831E-02
  2.009495242827E-02  2.520674221625E-02  3.050738058830E-02  3.562473008824E-02
  4.110718453678E-02  4.631512683008E-02  5.156410335150E-02  5.672722906228E-02
  6.240733975628E-02  6.784209610731E-02  7.287563178056E-02  7.828262999150E-02
  8.409079974550E-02  8.925880031034E-02  9.474441267004E-02  1.005671564146E-01
  1.067477507570E-01  1.119646129040E-01  1.174364279700E-01  1.231756557421E-01
  1.291953649286E-01  1.355092629178E-01  1.421317269910E-01  1.473101156723E-01
  1.526771723584E-01  1.582397709279E-01  1.640050357007E-01  1.699803505620E-01
  1.761733684197E-01  1.825920210056E-01  1.892445290339E-01  1.961394127302E-01
  2.032855027437E-01  2.106919514570E-01  2.157788979330E-01  2.209886636447E-01
  2.263242139397E-01  2.317885857611E-01  2.373848893757E-01  2.431163101448E-01
  2.489861103369E-01  2.549976309849E-01  2.611542937874E-01  2.674596030566E-01
  2.739171477128E-01  2.805306033271E-01  2.873037342139E-01  2.942403955727E-01
  3.013445356834E-01  3.086201981530E-01  3.160715242172E-01  3.237027550979E-01
  3.315182344170E-01  3.395224106687E-01  3.477198397519E-01  3.561151875629E-01
  3.647132326514E-01  3.735188689406E-01  3.825371085123E-01  3.917730844602E-01
  4.012320538114E-01  4.109194005186E-01  4.208406385247E-01  4.258907261870E-01
  4.310014149013E-01  4.361734318801E-01  4.414075130626E-01  4.467044032194E-01
  4.520648560580E-01  4.574896343307E-01  4.629795099427E-01  4.685352640620E-01
  4.741576872307E-01  4.798475794775E-01  4.856057504312E-01  4.914330194364E-01
  4.973302156697E-01  5.032981782577E-01  5.093377563968E-01  5.154498094735E-01
  5.216352071872E-01  5.278948296735E-01  5.342295676296E-01  5.406403224411E-01
  5.471280063104E-01  5.536935423861E-01  5.603378648948E-01  5.670619192735E-01
  5.738666623048E-01  5.807530622524E-01  5.877220989995E-01  5.947747641875E-01
  6.019120613577E-01  6.091350060940E-01  6.164446261671E-01  6.238419616811E-01
  6.313280652213E-01  6.389040020040E-01  6.465708500280E-01  6.543297002283E-01
  6.621816566311E-01  6.701278365107E-01  6.781693705488E-01  6.863074029954E-01
  6.945430918313E-01  7.028776089333E-01  7.113121402405E-01  7.198478859234E-01
  7.284860605545E-01  7.372278932811E-01  7.460746280005E-01  7.550275235365E-01
  7.640878538189E-01  7.732569080648E-01  7.825359909615E-01  7.919264228531E-01
  8.014295399273E-01  8.110466944064E-01  8.207792547393E-01  8.306286057962E-01
  8.405961490657E-01  8.506833028545E-01  8.608915024888E-01  8.712222005187E-01
  8.816768669249E-01  8.922569893280E-01  9.029640731999E-01  9.137996420783E-01
  9.247652377832E-01  9.358624206366E-01  9.470927696843E-01  9.584578829205E-01
  9.699593775155E-01  9.815988900457E-01  9.933780767263E-01  1.005298613647E+00
  1.017362197011E+00  1.029570543375E+00  1.041925389895E+00  1.054428494574E+00
  1.067081636509E+00  1.079886616147E+00  1.092845255541E+00  1.105959398607E+00
  1.119230911391E+00  1.132661682327E+00  1.146253622515E+00  1.160008665985E+00
  1.173928769977E+00  1.188015915217E+00  1.202272106200E+00  1.216699371474E+00
  1.231299763932E+00  1.246075361099E+00  1.261028265432E+00  1.276160604617E+00
  1.291474531873E+00  1.306972226255E+00  1.322655892970E+00  1.338527763686E+00
  1.354590096850E+00  1.370845178012E+00  1.387295320148E+00  1.403942863990E+00
  1.420790178358E+00  1.437839660498E+00  1.455093736424E+00  1.472554861261E+00
  1.490225519597E+00  1.508108225832E+00  1.526205524542E+00  1.544519990836E+00
  1.563054230726E+00  1.581810881495E+00  1.600792612073E+00  1.620002123418E+00
  1.639442148899E+00  1.659115454686E+00  1.679024840142E+00  1.699173138224E+00
  1.719563215882E+00  1.740197974473E+00  1.761080350166E+00  1.782213314368E+00
  1.803599874141E+00  1.825243072631E+00  1.847145989502E+00  1.869311741376E+00
  1.891743482273E+00  1.914444404060E+00  1.937417736909E+00  1.960666749752E+00
  1.984194750749E+00  2.008005087758E+00  2.032101148811E+00  2.056486362596E+00
  2.081164198948E+00  2.106138169335E+00  2.131411827367E+00  2.156988769295E+00
  2.182872634527E+00  2.209067106141E+00  2.235575911415E+00  2.262402822352E+00
  2.289551656220E+00  2.317026276095E+00  2.344830591408E+00  2.372968558505E+00
  2.401444181207E+00  2.430261511381E+00  2.459424649518E+00  2.488937745312E+00
  2.518804998256E+00  2.549030658235E+00  2.579619026134E+00  2.610574454447E+00
  2.641901347901E+00  2.673604164076E+00  2.705687414044E+00  2.738155663013E+00
  2.771013530969E+00  2.804265693341E+00  2.837916881661E+00  2.871971884241E+00
  2.906435546852E+00  2.941312773414E+00  2.976608526695E+00  3.012327829015E+00
  3.048475762963E+00  3.085057472119E+00  3.122078161784E+00  3.159543099726E+00
  3.197457616923E+00  3.235827108326E+00  3.274657033625E+00  3.313952918029E+00
  3.353720353045E+00  3.393964997282E+00  3.434692577249E+00  3.475908888176E+00
  3.517619794834E+00  3.559831232372E+00  3.602549207161E+00  3.645779797647E+00
  3.689529155219E+00  3.733803505081E+00  3.778609147142E+00  3.823952456908E+00
  3.869839886391E+00  3.916277965027E+00  3.963273300608E+00  4.010832580215E+00
  4.058962571178E+00  4.107670122032E+00  4.156962163496E+00  4.206845709458E+00
  4.257327857972E+00  4.308415792267E+00  4.360116781774E+00  4.412438183156E+00
  4.465387441354E+00  4.518972090650E+00  4.573199755738E+00  4.628078152807E+00
  4.683615090640E+00  4.739818471728E+00  4.796696293389E+00  4.854256648909E+00
  4.912507728696E+00  4.971457821441E+00  5.031115315298E+00  5.091488699081E+00
  5.152586563470E+00  5.214417602232E+00  5.276990613459E+00  5.340314500820E+00
  5.404398274830E+00  5.469251054128E+00  5.534882066778E+00  5.601300651579E+00
  5.668516259398E+00  5.736538454511E+00  5.805376915965E+00  5.875041438956E+00
  5.945541936224E+00  6.016888439459E+00  6.089091100732E+00  6.162160193941E+00
  6.236106116268E+00  6.310939389663E+00  6.386670662339E+00  6.463310710287E+00
  6.540870438811E+00  6.619360884077E+00  6.698793214686E+00  6.779178733262E+00
  6.860528878061E+00  6.942855224598E+00  7.026169487293E+00  7.110483521140E+00
  7.195809323394E+00  7.282159035275E+00  7.369544943698E+00  7.457979483022E+00
  7.547475236819E+00  7.638044939660E+00  7.729701478936E+00  7.822457896684E+00
  7.916327391444E+00  8.011323320141E+00  8.107459199983E+00  8.204748710383E+00
  8.303205694907E+00  8.402844163246E+00  8.503678293205E+00  8.605722432724E+00
  8.708991101916E+00  8.813498995139E+00  8.919260983081E+00  9.026292114878E+00
  9.134607620256E+00  9.244222911700E+00  9.355153586640E+00  9.467415429680E+00
  9.581024414836E+00  9.695996707814E+00  9.812348668308E+00  9.930096852327E+00
  1.004925801456E+01  1.016984911073E+01  1.029188730006E+01  1.041538994766E+01
  1.054037462703E+01  1.066685912256E+01  1.079486143203E+01  1.092439976921E+01
  1.105549256644E+01  1.118815847724E+01  1.132241637897E+01  1.145828537551E+01
  1.159578480002E+01  1.173493421762E+01  1.187575342823E+01  1.201826246937E+01
  1.216248161900E+01  1.230843139843E+01  1.245613257521E+01  1.260560616611E+01
  1.275687344011E+01  1.290995592139E+01  1.306487539244E+01  1.322165389715E+01
  1.338031374392E+01  1.354087750885E+01  1.370336803895E+01  1.386780845542E+01
  1.403422215689E+01  1.420263282277E+01  1.437306441664E+01  1.454554118964E+01
  1.472008768392E+01  1.489672873612E+01  1.507548948096E+01  1.525639535473E+01
  1.543947209899E+01  1.562474576417E+01  1.581224271334E+01  1.600198962590E+01
  1.619401350141E+01  1.638834166343E+01  1.658500176339E+01  1.678402178455E+01
  1.698543004597E+01  1.718925520652E+01  1.739552626900E+01  1.760427258423E+01
  1.781552385524E+01  1.802931014150E+01  1.824566186320E+01  1.846460980556E+01
  1.868618512322E+01  1.891041934470E+01  1.913734437684E+01  1.936699250936E+01
  1.959939641947E+01  1.983458917651E+01  2.007260424662E+01  2.031347549758E+01
  2.055723720355E+01  2.080392405000E+01  2.105357113860E+01  2.130621399226E+01
  2.156188856017E+01  2.182063122289E+01  2.208247879756E+01  2.234746854313E+01
  2.261563816565E+01  2.288702582364E+01  2.316167013352E+01  2.343961017513E+01
  2.372088549723E+01  2.400553612319E+01  2.429360255667E+01  2.458512578735E+01
  2.488014729680E+01  2.517870906436E+01  2.548085357313E+01  2.578662381601E+01
  2.609606330180E+01  2.640921606143E+01  2.672612665416E+01  2.704684017401E+01
  2.737140225610E+01  2.769985908317E+01  2.803225739217E+01  2.836864448088E+01
  2.870906821465E+01  2.905357703323E+01  2.940221995762E+01  2.975504659712E+01
  3.011210715628E+01  3.047345244216E+01  3.083913387146E+01  3.120920347792E+01
  3.158371391965E+01  3.196271848669E+01  3.234627110853E+01  3.273442636183E+01
  3.312723947817E+01  3.352476635191E+01  3.392706354814E+01  3.433418831071E+01
  3.474619857044E+01  3.516315295329E+01  3.558511078873E+01  3.601213211819E+01
  3.644427770361E+01  3.688160903605E+01  3.732418834449E+01  3.777207860462E+01
  3.822534354788E+01  3.868404767045E+01  3.914825624250E+01  3.961803531741E+01
  4.009345174121E+01  4.057457316211E+01  4.106146804005E+01  4.155420565653E+01
  4.205285612441E+01  4.255749039791E+01  4.306818028268E+01  4.358499844607E+01
  4.410801842743E+01
</grid-data>
</grid>
<valence-charge total-charge="20" is-unscreening-charge="yes"
 rescaled-to-z-pseudo="no">
<radfunc>
<data npts="457">
  7.039424818358E+00  7.041203911747E+00  7.046522253550E+00  7.055395272938E+00
  7.067732233535E+00  7.083954781010E+00  7.104631448242E+00  7.128309713444E+00
  7.157719360977E+00  7.189518700699E+00  7.225364726919E+00  7.264330051006E+00
  7.311426052330E+00  7.360617581311E+00  7.409763067675E+00  7.466376825518E+00
  7.531576340439E+00  7.593385039801E+00  7.662876592768E+00  7.740983893240E+00
  7.828746863472E+00  7.906682870563E+00  7.992188007306E+00  8.085969732912E+00
  8.188795401657E+00  8.301495860546E+00  8.424968875708E+00  8.525222610992E+00
  8.632513828804E+00  8.747301051121E+00  8.870066628629E+00  9.001316864492E+00
  9.141581882240E+00  9.291415176931E+00  9.451392778098E+00  9.622111940732E+00
  9.804189266716E+00  9.998258143414E+00  1.013461834532E+01  1.027678949599E+01
  1.042496681090E+01  1.057934582449E+01  1.074012146529E+01  1.090748699521E+01
  1.108163279877E+01  1.126274500718E+01  1.145100394097E+01  1.164658235394E+01
  1.184964346030E+01  1.206033872571E+01  1.227880540246E+01  1.250516378815E+01
  1.273951418686E+01  1.298193355177E+01  1.323247178828E+01  1.349114769729E+01
  1.375794453975E+01  1.403280520525E+01  1.431562697013E+01  1.460625583459E+01
  1.490448043264E+01  1.521002551545E+01  1.552254501608E+01  1.584161471330E+01
  1.616672452408E+01  1.649727046792E+01  1.683254636340E+01  1.700170732819E+01
  1.717173533613E+01  1.734250957438E+01  1.751390124059E+01  1.768577327943E+01
  1.785798012348E+01  1.803036744013E+01  1.820277188614E+01  1.837502087168E+01
  1.854693233584E+01  1.871831453583E+01  1.888896585200E+01  1.905867461141E+01
  1.922721893237E+01  1.939436659286E+01  1.955987492586E+01  1.972349074466E+01
  1.988495030156E+01  2.004397928333E+01  2.020029284724E+01  2.035359570131E+01
  2.050358223265E+01  2.064993668814E+01  2.079233341131E+01  2.093043713969E+01
  2.106390336697E+01  2.119237877395E+01  2.131550173265E+01  2.143290288764E+01
  2.154420581846E+01  2.164902778704E+01  2.174698057355E+01  2.183767140399E+01
  2.192070397222E+01  2.199567955893E+01  2.206219824927E+01  2.211986025030E+01
  2.216826730880E+01  2.220702422896E+01  2.223574048873E+01  2.225403195244E+01
  2.226152267634E+01  2.225784680245E+01  2.224265053471E+01  2.221559419028E+01
  2.217635431722E+01  2.212462586839E+01  2.206012441983E+01  2.198258842036E+01
  2.189178145762E+01  2.178749452416E+01  2.166954826591E+01  2.153779519371E+01
  2.139212183754E+01  2.123245082198E+01  2.105874284026E+01  2.087099850392E+01
  2.066926004436E+01  2.045361284248E+01  2.022418676300E+01  1.998115727013E+01
  1.972474630270E+01  1.945522288752E+01  1.917290347204E+01  1.887815195895E+01
  1.857137942800E+01  1.825304353325E+01  1.792364756672E+01  1.758373918336E+01
  1.723390878524E+01  1.687478756738E+01  1.650704523087E+01  1.613138737334E+01
  1.574855257036E+01  1.535930916521E+01  1.496445178769E+01  1.456479762597E+01
  1.416118247805E+01  1.375445661172E+01  1.334548046368E+01  1.293512020991E+01
  1.252424323998E+01  1.211371356868E+01  1.170438721789E+01  1.129710760165E+01
  1.089270094663E+01  1.049197177935E+01  1.009569851099E+01  9.704629149917E+00
  9.319477171408E+00  8.940917574231E+00  8.569583153453E+00  8.206061019542E+00
  7.850889394356E+00  7.504554715480E+00  7.167489081203E+00  6.840068069099E+00
  6.522608961452E+00  6.215369410386E+00  5.918546574352E+00  5.632276755274E+00
  5.356635562075E+00  5.091638621337E+00  4.837242849496E+00  4.593349410774E+00
  4.359811835041E+00  4.136447192506E+00  3.923041123420E+00  3.719350206372E+00
  3.525106247885E+00  3.340019893996E+00  3.163784309880E+00  2.996079524365E+00
  2.836579403164E+00  2.684959584589E+00  2.540898817300E+00  2.404080262758E+00
  2.274192534040E+00  2.150930619031E+00  2.033996659078E+00  1.923100601335E+00
  1.817960731708E+00  1.718304098835E+00  1.623866838173E+00  1.534394405265E+00
  1.449641726931E+00  1.369373278824E+00  1.293363097385E+00  1.221394733854E+00
  1.153261157535E+00  1.088764615084E+00  1.027716452130E+00  9.699369030808E-01
  9.152548545057E-01  8.635075870439E-01  8.145405003430E-01  7.682068251104E-01
  7.243673259454E-01  6.828899982341E-01  6.436497620131E-01  6.065281553595E-01
  5.714130295370E-01  5.381982478195E-01  5.067833896309E-01  4.770734613805E-01
  4.489786151298E-01  4.224138760150E-01  3.972988791466E-01  3.735576165358E-01
  3.511181944374E-01  3.299126013600E-01  3.098764868714E-01  2.909489512232E-01
  2.730723457223E-01  2.561920837047E-01  2.402564618956E-01  2.252164918923E-01
  2.110257414556E-01  1.976401852683E-01  1.850180647873E-01  1.731197568010E-01
  1.619076502900E-01  1.513460311820E-01  1.414009745907E-01  1.320402441306E-01
  1.232331979041E-01  1.149507007662E-01  1.071650424811E-01  9.984986139941E-02
  9.298007329390E-02  8.653180500861E-02  8.048233258871E-02  7.481002357435E-02
  6.949428315297E-02  6.451550388347E-02  5.985501871847E-02  5.549505706310E-02
  5.141870362430E-02  4.760985981839E-02  4.405320751797E-02  4.073417493254E-02
  3.763890443119E-02  3.475422212827E-02  3.206760906696E-02  2.956717384823E-02
  2.724162656610E-02  2.508025392293E-02  2.307289541093E-02  2.120992045855E-02
  1.948220645231E-02  1.788111755587E-02  1.639848425903E-02  1.502658359933E-02
  1.375812000841E-02  1.258620674373E-02  1.150434787378E-02  1.050642079213E-02
  9.586659241094E-03  8.739636831276E-03  7.960251047217E-03  7.243707732902E-03
  6.585506053510E-03  5.981423931748E-03  5.427503958421E-03  4.920039777641E-03
  4.455562947305E-03  4.030830275266E-03  3.642811631072E-03  3.288678232257E-03
  2.965791403092E-03  2.671691802424E-03  2.404089115855E-03  2.160852206104E-03
  1.939999713943E-03  1.739691100732E-03  1.558218122292E-03  1.393996722665E-03
  1.245559335300E-03  1.111547578356E-03  9.907053301217E-04  8.818721701022E-04
  7.839771709844E-04  6.960330266185E-04  6.171305011674E-04  5.464331847840E-04
  4.831725415023E-04  4.266432354488E-04  3.761987219892E-04  3.312470909898E-04
  2.912471499745E-04  2.557047355669E-04  2.241692422246E-04  1.962303578607E-04
  1.715149965153E-04  1.496844187669E-04  1.304315310554E-04  1.134783555322E-04
  9.857366244008E-05  8.549075738052E-05  7.402541612784E-05  6.399395992491E-05
  5.523146443050E-05  4.759009570144E-05  4.093756678249E-05  3.515570865082E-05
  3.013914942477E-05  2.579409590215E-05  2.203721164577E-05  1.879458598648E-05
  1.600078846887E-05  1.359800342389E-05  1.153523951791E-05  9.767609298556E-06
  8.255673935653E-06  6.964848539737E-06  5.864863630555E-06  4.929278523059E-06
  4.135042597480E-06  3.462100622066E-06  2.893038500664E-06  2.412766021358E-06
  2.008233385421E-06  1.668178496865E-06  1.382902190478E-06  1.144068769589E-06
  9.445294128095E-07  7.781661907915E-07  6.397546090739E-07  5.248427605458E-07
  4.296453306768E-07  3.509508499744E-07  2.860407309668E-07  2.326187612341E-07
  1.887498495988E-07  1.528069396073E-07  1.234251130237E-07  9.946200642371E-08
  7.996375637967E-08  6.413577348029E-08  5.131772286737E-08  4.096215947411E-08
  3.261633010163E-08  2.590671227623E-08  2.052591189710E-08  1.622158841950E-08
  1.278711812548E-08  1.005374330456E-08  7.883988282318E-09  6.166152559961E-09
  4.809717210856E-09  3.741523449057E-09  2.902602249546E-09  2.245551347838E-09
  1.732371145682E-09  1.332684246382E-09  1.022274764327E-09  7.818934054321E-10
  5.962827861711E-10  4.533847186821E-10  3.436973907628E-10  2.597556495395E-10
  1.957120782107E-10  1.470003450438E-10  1.100654986122E-10  8.214856754505E-11
  6.111507083190E-11  4.531892063937E-11  3.349475982953E-11  2.467306982812E-11
  1.811345191015E-11  1.322100796510E-11  9.640891472722E-12  7.005596508045E-12
  5.072596357687E-12  3.659775757582E-12  2.630868384001E-12  1.884280246959E-12
  1.344542730024E-12  9.558004538894E-13  6.768678594477E-13  4.774906466020E-13
  3.355291006047E-13  2.348440951218E-13  1.637166134428E-13  1.136707662123E-13
  7.860076327879E-14  5.412593774209E-14  3.711618136452E-14  2.534419791045E-14
  1.723174180736E-14  1.166521788560E-14  7.862252562258E-15  5.275561852274E-15
  3.523991839338E-15  2.343268668840E-15  1.550981361297E-15  1.021796399947E-15
  6.699943749143E-16  4.372223456827E-16  2.839442345450E-16  1.835008472901E-16
  1.180026883455E-16  7.550378431360E-17  4.806648745967E-17  3.044293072843E-17
  1.918112481769E-17  1.202204068455E-17  7.494998685417E-18  4.647575730697E-18
  2.866255188301E-18  1.757957116217E-18  1.072205376062E-18  6.502717022145E-19
  3.921294314018E-19  2.350996138663E-19  1.401303171422E-19  8.303084561603E-20
  4.890385155771E-20  2.862935832934E-20  1.665763785197E-20  9.631997597455E-21
  5.534621464006E-21  3.160057721387E-21  1.792687408143E-21  0.000000000000E+00
  0.000000000000E+00  0.000000000000E+00  0.000000000000E+00  0.000000000000E+00
  0.000000000000E+00  0.000000000000E+00  0.000000000000E+00  0.000000000000E+00
  0.000000000000E+00  0.000000000000E+00  0.000000000000E+00  0.000000000000E+00
  0.000000000000E+00  0.000000000000E+00  0.000000000000E+00  0.000000000000E+00
  0.000000000000E+00  0.000000000000E+00  0.000000000000E+00  0.000000000000E+00
  0.000000000000E+00  0.000000000000E+00  0.000000000000E+00  0.000000000000E+00
  0.000000000000E+00
</data>
</radfunc>
</valence-charge>
<pseudocore-charge matching-radius="0.764087853819"
 number-of-continuous-derivatives="4">
<annotation model-charge-form="Teter function with specified parameters" />
<radfunc>
<data npts="290">
  1.150123623506E+02  1.150039501122E+02  1.149788035403E+02  1.149368518753E+02
  1.148785276884E+02  1.148018428492E+02  1.147041176423E+02  1.145922256608E+02
  1.144532792241E+02  1.143030788325E+02  1.141338090526E+02  1.139498626349E+02
  1.137276060735E+02  1.134955442943E+02  1.132637841781E+02  1.129969081320E+02
  1.126896930180E+02  1.123985849536E+02  1.120714395306E+02  1.117039156646E+02
  1.112911816191E+02  1.109248543307E+02  1.105231508961E+02  1.100827983288E+02
  1.096002508842E+02  1.090716737707E+02  1.084929273734E+02  1.080232738668E+02
  1.075208950350E+02  1.069836791527E+02  1.064094041467E+02  1.057957359928E+02
  1.051402278805E+02  1.044403203118E+02  1.036933423220E+02  1.028965140345E+02
  1.020469507880E+02  1.011416691054E+02  1.005056786114E+02  9.984262854358E+01
  9.915157353798E+01  9.843155600338E+01  9.768160837731E+01  9.690075570035E+01
  9.608801853470E+01  9.524241625369E+01  9.436297072979E+01  9.344871044919E+01
  9.249867508154E+01  9.151192053318E+01  9.048752451239E+01  8.942459263391E+01
  8.832226508933E+01  8.717972390772E+01  8.599620082878E+01  8.477098580716E+01
  8.350343616295E+01  8.219298638772E+01  8.083915860967E+01  7.944157371360E+01
  7.799996310279E+01  7.651418107912E+01  7.498421780605E+01  7.341021280496E+01
  7.179246891951E+01  7.013146666530E+01  6.842787886188E+01  6.756038185716E+01
  6.668258542242E+01  6.579463433366E+01  6.489668815257E+01  6.398892167694E+01
  6.307152538362E+01  6.214470586223E+01  6.120868623759E+01  6.026370657871E+01
  5.931002429226E+01  5.834791449794E+01  5.737767038341E+01  5.639960353620E+01
  5.541404424970E+01  5.442134180055E+01  5.342186469432E+01  5.241600087649E+01
  5.140415790552E+01  5.038676308460E+01  4.936426354889E+01  4.833712630465E+01
  4.730583821664E+01  4.627090594048E+01  4.523285579594E+01  4.419223357785E+01
  4.314960430071E+01  4.210555187344E+01  4.106067870062E+01  4.001560520675E+01
  3.897096927987E+01  3.792742563137E+01  3.688564506875E+01  3.584631367832E+01
  3.481013191498E+01  3.377781359684E+01  3.275008480211E+01  3.172768266681E+01
  3.071135408158E+01  2.970185428675E+01  2.869994536514E+01  2.770639463269E+01
  2.672197292762E+01  2.574745279931E+01  2.478360659915E+01  2.383120447603E+01
  2.289101228011E+01  2.196378937938E+01  2.105028639439E+01  2.015124285746E+01
  1.926738480376E+01  1.839942230258E+01  1.754804693821E+01  1.671392925089E+01
  1.589771614944E+01  1.510002830818E+01  1.432145756189E+01  1.356256431356E+01
  1.282387497072E+01  1.210587942721E+01  1.140902860785E+01  1.073373209478E+01
  1.008035585439E+01  9.449220084852E+00  8.840597204468E+00  8.254710001372E+00
  7.691729965344E+00  7.151775822355E+00  6.634912292196E+00  6.141149089007E+00
  5.670440183770E+00  5.222683346753E+00  4.797719986587E+00  4.395335301008E+00
  4.015258752391E+00  3.657164878958E+00  3.320674449999E+00  3.005355970603E+00
  2.710727538288E+00  2.436259050469E+00  2.181374758095E+00  1.945456156892E+00
  1.727845203583E+00  1.527847840281E+00  1.344737805969E+00  1.177760709673E+00
  1.026138335675E+00  8.890731469666E-01  7.657529491940E-01  6.553556736701E-01
  5.570542347059E-01  4.700214136720E-01  3.934347198727E-01  3.264811766303E-01
  2.683619800007E-01  2.182969773487E-01  1.755289136751E-01  1.393273951528E-01
  1.089925218421E-01  8.385814502730E-02  6.329470906031E-02  4.671164296784E-02
  3.355927335288E-02  2.333023720144E-02  1.556038100296E-02  9.829140970365E-03
  5.759407949713E-03  3.016889655971E-03  1.308991958616E-03  3.832498461073E-04
  2.534718802545E-05  5.677224730964E-05  3.321628329811E-04  7.364007956535E-04
  1.181520041559E-03  1.603495190555E-03  1.958979280782E-03  2.222058423752E-03
  2.381088988397E-03  2.435678750662E-03  2.393867561124E-03  2.269555598887E-03
  2.080218404922E-03  1.844937895457E-03  1.582767776964E-03  1.311440597066E-03
  1.046412483076E-03  8.002308721590E-04  5.822006536916E-04  3.983155326063E-04
  2.514144463744E-04  1.415178271345E-04  6.629560947573E-05  2.161825802411E-05
  2.143729009966E-06  1.897069134656E-06  1.480505746365E-05  3.515556534253E-05
  5.795970428083E-05  7.920383971840E-05  9.598761537975E-05  1.065526978210E-04
  1.102144845601E-04  1.072150624333E-04  9.851990152354E-05  8.558290528564E-05
  7.010444638105E-05  5.380500247724E-05  3.823323008541E-05  2.462218326728E-05
  1.380141400219E-05  6.166464785233E-06  1.701377917312E-06  4.485326870287E-08
  5.870422787767E-07  2.581980139363E-06  5.260460050766E-06  7.929676557454E-06
  1.004895180165E-05  1.127488833258E-05  1.147382907543E-05  1.070396263196E-05
  9.173226158970E-06  7.181860144578E-06  5.059749631760E-06  3.108437200412E-06
  1.556025403329E-06  5.304153979935E-07  5.292739421658E-08  0.000000000000E+00
  0.000000000000E+00  0.000000000000E+00  0.000000000000E+00  0.000000000000E+00
  0.000000000000E+00  0.000000000000E+00  0.000000000000E+00  0.000000000000E+00
  0.000000000000E+00  0.000000000000E+00  0.000000000000E+00  0.000000000000E+00
  0.000000000000E+00  0.000000000000E+00  0.000000000000E+00  0.000000000000E+00
  0.000000000000E+00  0.000000000000E+00  0.000000000000E+00  0.000000000000E+00
  0.000000000000E+00  0.000000000000E+00  0.000000000000E+00  0.000000000000E+00
  0.000000000000E+00  0.000000000000E+00  0.000000000000E+00  0.000000000000E+00
  0.000000000000E+00  0.000000000000E+00  0.000000000000E+00  0.000000000000E+00
  0.000000000000E+00  0.000000000000E+00  0.000000000000E+00  0.000000000000E+00
  0.000000000000E+00  0.000000000000E+00  0.000000000000E+00  0.000000000000E+00
  0.000000000000E+00  0.000000000000E+00  0.000000000000E+00  0.000000000000E+00
  0.000000000000E+00  0.000000000000E+00  0.000000000000E+00  0.000000000000E+00
  0.000000000000E+00  0.000000000000E+00  0.000000000000E+00  0.000000000000E+00
  0.000000000000E+00  0.000000000000E+00
</data>
</radfunc>
</pseudocore-charge>
<semilocal-potentials set="scalar_relativistic">
<slps n="5" l="s" rc="1.60079261207" eref="-4.34312697296">
<radfunc>
<data npts="290">
 -1.965997180843E+01 -1.966040495035E+01 -1.966169956164E+01 -1.966385881592E+01
 -1.966685967351E+01 -1.967080328010E+01 -1.967582573244E+01 -1.968157189071E+01
 -1.968870091347E+01 -1.969639924443E+01 -1.970506485627E+01 -1.971446969045E+01
 -1.972581638243E+01 -1.973764394624E+01 -1.974943603336E+01 -1.976298994144E+01
 -1.977855954401E+01 -1.979328021718E+01 -1.980978530345E+01 -1.982827966083E+01
 -1.984898859462E+01 -1.986731543041E+01 -1.988735403953E+01 -1.990925078662E+01
 -1.993316171243E+01 -1.995925254552E+01 -1.998769854153E+01 -2.001068921736E+01
 -2.003518919823E+01 -2.006128193330E+01 -2.008905305729E+01 -2.011859002126E+01
 -2.014998163244E+01 -2.018331749013E+01 -2.021868730385E+01 -2.025618007839E+01
 -2.029588314938E+01 -2.033788105179E+01 -2.036719448590E+01 -2.039758620551E+01
 -2.042907737991E+01 -2.046168759808E+01 -2.049543460079E+01 -2.053033398924E+01
 -2.056639890913E+01 -2.060363970877E+01 -2.064206357026E+01 -2.068167411257E+01
 -2.072247096543E+01 -2.076444931315E+01 -2.080759940751E+01 -2.085190604905E+01
 -2.089734803610E+01 -2.094389758138E+01 -2.099151969580E+01 -2.104017153973E+01
 -2.108980174205E+01 -2.114034968760E+01 -2.119174477421E+01 -2.124390564052E+01
 -2.129673936660E+01 -2.135014064958E+01 -2.140399095709E+01 -2.145815766184E+01
 -2.151249316138E+01 -2.156683398747E+01 -2.162099991046E+01 -2.164795615802E+01
 -2.167479304457E+01 -2.170148293011E+01 -2.172799696099E+01 -2.175430504325E+01
 -2.178037581628E+01 -2.180617662701E+01 -2.183167350478E+01 -2.185683113679E+01
 -2.188161284437E+01 -2.190598056015E+01 -2.192989480609E+01 -2.195331467269E+01
 -2.197619779925E+01 -2.199850035551E+01 -2.202017702457E+01 -2.204118098745E+01
 -2.206146390912E+01 -2.208097592651E+01 -2.209966563811E+01 -2.211748009596E+01
 -2.213436479946E+01 -2.215026369179E+01 -2.216511915859E+01 -2.217887202936E+01
 -2.219146158164E+01 -2.220282554807E+01 -2.221290012663E+01 -2.222161999405E+01
 -2.222891832278E+01 -2.223472680141E+01 -2.223897565900E+01 -2.224159369331E+01
 -2.224250830306E+01 -2.224164552461E+01 -2.223893007299E+01 -2.223428538755E+01
 -2.222763368242E+01 -2.221889600184E+01 -2.220799228062E+01 -2.219484140977E+01
 -2.217936130755E+01 -2.216146899597E+01 -2.214108068297E+01 -2.211811185032E+01
 -2.209247734748E+01 -2.206409149140E+01 -2.203286817253E+01 -2.199872096715E+01
 -2.196156325603E+01 -2.192130834981E+01 -2.187786962111E+01 -2.183116064366E+01
 -2.178109533864E+01 -2.172758812861E+01 -2.167055409926E+01 -2.160990916945E+01
 -2.154557027004E+01 -2.147745553191E+01 -2.140548448402E+01 -2.132957826197E+01
 -2.124965982823E+01 -2.116565420456E+01 -2.107748871809E+01 -2.098509326187E+01
 -2.088840057132E+01 -2.078734651798E+01 -2.068187042187E+01 -2.057191538419E+01
 -2.045742864184E+01 -2.033836194561E+01 -2.021467196365E+01 -2.008632071213E+01
 -1.995327601499E+01 -1.981551199449E+01 -1.967300959480E+01 -1.952575714057E+01
 -1.937375093281E+01 -1.921699588467E+01 -1.905550619999E+01 -1.888930609834E+01
 -1.871843059077E+01 -1.854292631203E+01 -1.836285241620E+01 -1.817828154494E+01