<?xml version="1.0" encoding="UTF-8" ?>
<psml version="1.1" energy_unit="hartree" length_unit="bohr"
 uuid="d3726250-be41-11e7-7ce4-6d82e9bfa4dc"
 xmlns="http://esl.cecam.org/PSML/ns/1.1">
<provenance creator="ONCVPSP-3.3.0+psml-3.3.0-73 (scalar-relativistic)"
 date="2017-10-31">
<annotation action="semilocal-pseudopotential-generation"
 action-cont="projectors-generation" />
<input-file name="oncvpsp-input">
<![CDATA[# atsym z nc nv iexc psfile
V 23 3 4 4 upf
# n l f
1 0 2.0
2 0 2.0
2 1 6.0
3 0 2.0
3 1 6.0
3 2 3.0
4 0 2.0
# lmax
2
# l rc ep ncon nbas qcut
0 1.3 0.0 4 8 9.0
1 1.3 0.0 4 7 9.0
2 1.65 0.0 4 8 9.0
# lloc lpopt rc5 dvloc0
4 5 1.2 0.0
# l nproj debl
0 2 1.0
1 2 1.5
2 2 1.5
# icmod fcfact
3 5 1.3
# epsh1 epsh2 depsh
-12.0 12.0 0.02
# rlmax drl
6.0 0.01
 0
]]>
</input-file>
</provenance>
<pseudo-atom-spec atomic-label="V" atomic-number="23" z-pseudo="13"
 flavor="Hamann&apos;s oncvpsp" relativity="scalar" spin-dft="no"
 core-corrections="yes">
<annotation pseudo-energy="-71.1723547917" />
<exchange-correlation>
<annotation oncvpsp-xc-code="4" oncvpsp-xc-type="GGA -- Perdew-Burke-Ernzerhof" />
<libxc-info number-of-functionals="2">
<functional name="Perdew, Burke &amp; Ernzerhof (GGA)" type="exchange" id="101" />
<functional name="Perdew, Burke &amp; Ernzerhof (GGA)" type="correlation"
 id="130" />
</libxc-info>
</exchange-correlation>
<valence-configuration total-valence-charge="13">
<shell n="3" l="s" occupation="2" />
<shell n="3" l="p" occupation="6" />
<shell n="3" l="d" occupation="3" />
<shell n="4" l="s" occupation="2" />
</valence-configuration>
</pseudo-atom-spec>
<grid npts="458">
<annotation type="sampled from oncvpsp log grid"
 recipe="r(i:1..N) = r1*exp(a*(i-1)) + r=0; resampled"
 recipe-cont="r1: scale; a: step" scale="0.217391304348E-04"
 step="0.119285708653E-01" delta="0.500000000000E-02" rmax="44.3717337047" />
<grid-data>
  0.000000000000E+00  5.006749579795E-03  1.012059644248E-02  1.518250849851E-02
  2.021509715797E-02  2.535744957628E-02  3.068977967623E-02  3.583772504718E-02
  4.086260699098E-02  4.603956332018E-02  5.125730973400E-02  5.638971612822E-02
  6.203603157331E-02  6.743845247288E-02  7.244203985812E-02  7.781686777164E-02
  8.359048035711E-02  8.872773260121E-02  9.418070692882E-02  9.996880679323E-02
  1.061126281332E-01  1.112984512452E-01  1.167377103696E-01  1.224427911608E-01
  1.284266845717E-01  1.347030164349E-01  1.412860784904E-01  1.464336570443E-01
  1.517687810751E-01  1.572982835637E-01  1.630292464419E-01  1.689690096628E-01
  1.751251806013E-01  1.815056437973E-01  1.881185710538E-01  1.949724319034E-01
  2.020760044548E-01  2.094383866365E-01  2.144950670434E-01  2.196738359421E-01
  2.249776410371E-01  2.304095012023E-01  2.359725081993E-01  2.416698284373E-01
  2.475047047751E-01  2.534804583672E-01  2.596004905540E-01  2.658682847979E-01
  2.722874086661E-01  2.788615158609E-01  2.855943482999E-01  2.924897382452E-01
  2.995516104854E-01  3.067839845690E-01  3.141909770924E-01  3.217768040433E-01
  3.295457832001E-01  3.375023365897E-01  3.456509930043E-01  3.539963905794E-01
  3.625432794336E-01  3.712965243722E-01  3.802611076567E-01  3.894421318399E-01
  3.988448226711E-01  4.084745320697E-01  4.183367411719E-01  4.233567820660E-01
  4.284370634508E-01  4.335783082122E-01  4.387812479108E-01  4.440466228857E-01
  4.493751823603E-01  4.547676845486E-01  4.602248967632E-01  4.657475955244E-01
  4.713365666707E-01  4.769926054707E-01  4.827165167364E-01  4.885091149372E-01
  4.943712243165E-01  5.003036790082E-01  5.063073231563E-01  5.123830110342E-01
  5.185316071666E-01  5.247539864526E-01  5.310510342901E-01  5.374236467015E-01
  5.438727304620E-01  5.503992032275E-01  5.570039936662E-01  5.636880415902E-01
  5.704522980893E-01  5.772977256664E-01  5.842252983744E-01  5.912360019549E-01
  5.983308339783E-01  6.055108039861E-01  6.127769336339E-01  6.201302568375E-01
  6.275718199196E-01  6.351026817586E-01  6.427239139397E-01  6.504366009070E-01
  6.582418401179E-01  6.661407421993E-01  6.741344311057E-01  6.822240442789E-01
  6.904107328103E-01  6.986956616040E-01  7.070800095433E-01  7.155649696578E-01
  7.241517492937E-01  7.328415702852E-01  7.416356691286E-01  7.505352971582E-01
  7.595417207241E-01  7.686562213727E-01  7.778800960292E-01  7.872146571816E-01
  7.966612330677E-01  8.062211678646E-01  8.158958218789E-01  8.256865717415E-01
  8.355948106024E-01  8.456219483296E-01  8.557694117096E-01  8.660386446501E-01
  8.764311083859E-01  8.869482816865E-01  8.975916610667E-01  9.083627609995E-01
  9.192631141315E-01  9.302942715011E-01  9.414578027591E-01  9.527552963922E-01
  9.641883599490E-01  9.757586202683E-01  9.874677237116E-01  9.993173363961E-01
  1.011309144433E+00  1.023444854166E+00  1.035726192416E+00  1.048154906725E+00
  1.060732765606E+00  1.073461558793E+00  1.086343097499E+00  1.099379214668E+00
  1.112571765245E+00  1.125922626427E+00  1.139433697945E+00  1.153106902320E+00
  1.166944185148E+00  1.180947515370E+00  1.195118885554E+00  1.209460312181E+00
  1.223973835927E+00  1.238661521958E+00  1.253525460221E+00  1.268567765744E+00
  1.283790578933E+00  1.299196065880E+00  1.314786418671E+00  1.330563855695E+00
  1.346530621963E+00  1.362688989427E+00  1.379041257300E+00  1.395589752387E+00
  1.412336829416E+00  1.429284871369E+00  1.446436289825E+00  1.463793525303E+00
  1.481359047607E+00  1.499135356178E+00  1.517124980452E+00  1.535330480218E+00
  1.553754445980E+00  1.572399499332E+00  1.591268293324E+00  1.610363512844E+00
  1.629687874998E+00  1.649244129498E+00  1.669035059052E+00  1.689063479761E+00
  1.709332241518E+00  1.729844228416E+00  1.750602359157E+00  1.771609587467E+00
  1.792868902517E+00  1.814383329347E+00  1.836155929299E+00  1.858189800451E+00
  1.880488078056E+00  1.903053934993E+00  1.925890582213E+00  1.949001269199E+00
  1.972389284430E+00  1.996057955843E+00  2.020010651313E+00  2.044250779129E+00
  2.068781788478E+00  2.093607169940E+00  2.118730455979E+00  2.144155221451E+00
  2.169885084108E+00  2.195923705118E+00  2.222274789579E+00  2.248942087054E+00
  2.275929392099E+00  2.303240544804E+00  2.330879431341E+00  2.358849984518E+00
  2.387156184332E+00  2.415802058544E+00  2.444791683246E+00  2.474129183445E+00
  2.503818733647E+00  2.533864558450E+00  2.564270933152E+00  2.595042184350E+00
  2.626182690562E+00  2.657696882848E+00  2.689589245443E+00  2.721864316388E+00
  2.754526688185E+00  2.787581008443E+00  2.821031980544E+00  2.854884364311E+00
  2.889142976682E+00  2.923812692403E+00  2.958898444711E+00  2.994405226048E+00
  3.030338088761E+00  3.066702145826E+00  3.103502571576E+00  3.140744602434E+00
  3.178433537664E+00  3.216574740116E+00  3.255173636997E+00  3.294235720641E+00
  3.333766549289E+00  3.373771747880E+00  3.414257008855E+00  3.455228092961E+00
  3.496690830077E+00  3.538651120037E+00  3.581114933478E+00  3.624088312680E+00
  3.667577372432E+00  3.711588300901E+00  3.756127360512E+00  3.801200888838E+00
  3.846815299504E+00  3.892977083098E+00  3.939692808095E+00  3.986969121792E+00
  4.034812751254E+00  4.083230504269E+00  4.132229270320E+00  4.181816021564E+00
  4.231997813823E+00  4.282781787589E+00  4.334175169040E+00  4.386185271068E+00
  4.438819494321E+00  4.492085328253E+00  4.545990352192E+00  4.600542236418E+00
  4.655748743255E+00  4.711617728174E+00  4.768157140912E+00  4.825375026603E+00
  4.883279526922E+00  4.941878881246E+00  5.001181427821E+00  5.061195604954E+00
  5.121929952214E+00  5.183393111640E+00  5.245593828980E+00  5.308540954928E+00
  5.372243446387E+00  5.436710367744E+00  5.501950892157E+00  5.567974302862E+00
  5.634789994497E+00  5.702407474431E+00  5.770836364124E+00  5.840086400493E+00
  5.910167437299E+00  5.981089446547E+00  6.052862519905E+00  6.125496870144E+00
  6.199002832586E+00  6.273390866577E+00  6.348671556976E+00  6.424855615660E+00
  6.501953883048E+00  6.579977329644E+00  6.658937057600E+00  6.738844302291E+00
  6.819710433919E+00  6.901546959126E+00  6.984365522635E+00  7.068177908907E+00
  7.152996043814E+00  7.238831996339E+00  7.325697980295E+00  7.413606356059E+00
  7.502569632332E+00  7.592600467920E+00  7.683711673535E+00  7.775916213617E+00
  7.869227208181E+00  7.963657934679E+00  8.059221829895E+00  8.155932491854E+00
  8.253803681756E+00  8.352849325937E+00  8.453083517848E+00  8.554520520062E+00
  8.657174766303E+00  8.761060863499E+00  8.866193593861E+00  8.972587916987E+00
  9.080258971991E+00  9.189222079655E+00  9.299492744611E+00  9.411086657546E+00
  9.524019697437E+00  9.638307933806E+00  9.753967629011E+00  9.871015240560E+00
  9.989467423446E+00  1.010934103253E+01  1.023065312492E+01  1.035342096242E+01
  1.047766201397E+01  1.060339395813E+01  1.073063468563E+01  1.085940230186E+01
  1.098971512948E+01  1.112159171103E+01  1.125505081157E+01  1.139011142131E+01
  1.152679275836E+01  1.166511427146E+01  1.180509564272E+01  1.194675679043E+01
  1.209011787192E+01  1.223519928638E+01  1.238202167782E+01  1.253060593795E+01
  1.268097320921E+01  1.283314488772E+01  1.298714262637E+01  1.314298833789E+01
  1.330070419794E+01  1.346031264832E+01  1.362183640010E+01  1.378529843690E+01
  1.395072201814E+01  1.411813068236E+01  1.428754825055E+01  1.445899882955E+01
  1.463250681551E+01  1.480809689729E+01  1.498579406006E+01  1.516562358878E+01
  1.534761107185E+01  1.553178240471E+01  1.571816379356E+01  1.590678175909E+01
  1.609766314020E+01  1.629083509788E+01  1.648632511905E+01  1.668416102048E+01
  1.688437095273E+01  1.708698340416E+01  1.729202720501E+01  1.749953153147E+01
  1.770952590985E+01  1.792204022077E+01  1.813710470342E+01  1.835474995986E+01
  1.857500695938E+01  1.879790704289E+01  1.902348192740E+01  1.925176371053E+01
  1.948278487506E+01  1.971657829356E+01  1.995317723308E+01  2.019261535988E+01
  2.043492674420E+01  2.068014586513E+01  2.092830761551E+01  2.117944730689E+01
  2.143360067458E+01  2.169080388267E+01  2.195109352926E+01  2.221450665162E+01
  2.248108073143E+01  2.275085370021E+01  2.302386394461E+01  2.330015031195E+01
  2.357975211569E+01  2.386270914108E+01  2.414906165077E+01  2.443885039058E+01
  2.473211659527E+01  2.502890199441E+01  2.532924881835E+01  2.563319980417E+01
  2.594079820182E+01  2.625208778024E+01  2.656711283360E+01  2.688591818760E+01
  2.720854920586E+01  2.753505179633E+01  2.786547241788E+01  2.819985808690E+01
  2.853825638394E+01  2.888071546055E+01  2.922728404607E+01  2.957801145463E+01
  2.993294759208E+01  3.029214296319E+01  3.065564867875E+01  3.102351646289E+01
  3.139579866044E+01  3.177254824437E+01  3.215381882330E+01  3.253966464918E+01
  3.293014062497E+01  3.332530231247E+01  3.372520594022E+01  3.412990841150E+01
  3.453946731244E+01  3.495394092019E+01  3.537338821123E+01  3.579786886977E+01
  3.622744329621E+01  3.666217261576E+01  3.710211868715E+01  3.754734411140E+01
  3.799791224073E+01  3.845388718762E+01  3.891533383387E+01  3.938231783988E+01
  3.985490565396E+01  4.033316452181E+01  4.081716249607E+01  4.130696844602E+01
  4.180265206737E+01  4.230428389218E+01  4.281193529889E+01  4.332567852247E+01
  4.384558666474E+01  4.437173370472E+01
</grid-data>
</grid>
<valence-charge total-charge="13" is-unscreening-charge="yes"
 rescaled-to-z-pseudo="no">
<radfunc>
<data npts="458">
  2.744383779616E+00  2.747449796190E+00  2.756909647462E+00  2.772565793267E+00
  2.794327716984E+00  2.822932628854E+00  2.859373223089E+00  2.901078799100E+00
  2.947944059492E+00  3.002558549859E+00  3.064069433481E+00  3.130868386431E+00
  3.211516070581E+00  3.295647100127E+00  3.379592103981E+00  3.476160573986E+00
  3.587197498253E+00  3.692284972058E+00  3.810231482648E+00  3.942543988500E+00
  4.090887612755E+00  4.222331791119E+00  4.366228325088E+00  4.523675671266E+00
  4.695851353213E+00  4.884013489464E+00  5.089501176953E+00  5.255837491502E+00
  5.433343180909E+00  5.622668529424E+00  5.824485164729E+00  6.039483662482E+00
  6.268370408010E+00  6.511863586841E+00  6.770688158943E+00  7.045569653483E+00
  7.337226601759E+00  7.646361406121E+00  7.862496193843E+00  8.086890722748E+00
  8.319726015442E+00  8.561171121656E+00  8.811380719225E+00  9.070492465076E+00
  9.338624079275E+00  9.615870145266E+00  9.902298609876E+00  1.019794696743E+01
  1.050281811361E+01  1.081687585650E+01  1.114004007474E+01  1.147218151600E+01
  1.181311623306E+01  1.216259966018E+01  1.252032033869E+01  1.288589330866E+01
  1.325885319276E+01  1.363864700945E+01  1.402462676568E+01  1.441604189398E+01
  1.481203161612E+01  1.521161733480E+01  1.561369517633E+01  1.601702883154E+01
  1.642024286786E+01  1.682181671389E+01  1.722007954733E+01  1.741740511820E+01
  1.761320634764E+01  1.780723060512E+01  1.799921540612E+01  1.818888843697E+01
  1.837596761590E+01  1.856016119310E+01  1.874116789298E+01  1.891867710180E+01
  1.909236910363E+01  1.926191536813E+01  1.942697889308E+01  1.958721460509E+01
  1.974226982141E+01  1.989178477618E+01  2.003539321374E+01  2.017272305222E+01
  2.030339711964E+01  2.042703396523E+01  2.054324874797E+01  2.065165420413E+01
  2.075186169533E+01  2.084348233803E+01  2.092612821499E+01  2.099941366872E+01
  2.106295667616E+01  2.111638030331E+01  2.115931423784E+01  2.119139639670E+01
  2.121227460515E+01  2.122160834247E+01  2.121907054891E+01  2.120434948724E+01
  2.117715065125E+01  2.113719871243E+01  2.108423949513E+01  2.101804196910E+01
  2.093840024740E+01  2.084513557635E+01  2.073809830346E+01  2.061716980763E+01
  2.048226437569E+01  2.033333100777E+01  2.017035513360E+01  1.999336022101E+01
  1.980240925754E+01  1.959760608544E+01  1.937909657053E+01  1.914706958515E+01
  1.890175778603E+01  1.864343816818E+01  1.837243237698E+01  1.808910676161E+01
  1.779387215452E+01  1.748718336328E+01  1.716953836328E+01  1.684147718197E+01
  1.650358046819E+01  1.615646774290E+01  1.580079533090E+01  1.543725397643E+01
  1.506656614949E+01  1.468948305304E+01  1.430678134543E+01  1.391925959627E+01
  1.352773449779E+01  1.313303685757E+01  1.273600740222E+01  1.233749242498E+01
  1.193833931341E+01  1.153939199602E+01  1.114148634902E+01  1.074544560629E+01
  1.035207581673E+01  9.962161393858E+00  9.576460802671E+00  9.195702427696E+00
  8.820580665124E+00  8.451752279624E+00  8.089833063721E+00  7.735394834221E+00
  7.388962796178E+00  7.051013300380E+00  6.721972015388E+00  6.402212529884E+00
  6.092055395579E+00  5.791767615266E+00  5.501562575057E+00  5.221600414288E+00
  4.951988821405E+00  4.692784239042E+00  4.443993456291E+00  4.205575562049E+00
  3.977444231240E+00  3.759470314016E+00  3.551484696210E+00  3.353282186497E+00
  3.164628794021E+00  2.985271213430E+00  2.814939503965E+00  2.653349747156E+00
  2.500206652290E+00  2.355206112694E+00  2.218037683590E+00  2.088386971958E+00
  1.965937925775E+00  1.850375009931E+00  1.741385255497E+00  1.638660167955E+00
  1.541897478880E+00  1.450802724411E+00  1.365090632948E+00  1.284486304124E+00
  1.208726161447E+00  1.137558662394E+00  1.070744752231E+00  1.008057588639E+00
  9.492801886627E-01  8.942019068945E-01  8.426187433024E-01  7.943335462331E-01
  7.491561955371E-01  7.069037380405E-01  6.674004783795E-01  6.304780282621E-01
  5.959753172587E-01  5.637385682430E-01  5.336212406058E-01  5.054839443574E-01
  4.791943282063E-01  4.546269446627E-01  4.316630951526E-01  4.101906580471E-01
  3.901039024004E-01  3.713032900516E-01  3.536952685762E-01  3.371920573739E-01
  3.217114289486E-01  3.071764871953E-01  2.935154442479E-01  2.806613971908E-01
  2.685521056961E-01  2.571297714399E-01  2.463408199712E-01  2.361356855770E-01
  2.264685995886E-01  2.172973825206E-01  2.085832404046E-01  2.002905656729E-01
  1.923867429480E-01  1.848419600987E-01  1.776290249192E-01  1.707231877757E-01
  1.641019705402E-01  1.577450020946E-01  1.516338606449E-01  1.457519230295E-01
  1.400842211524E-01  1.346173056144E-01  1.293391165601E-01  1.242388617066E-01
  1.193069014743E-01  1.145346410995E-01  1.099144295712E-01  1.054394652084E-01
  1.011037076698E-01  9.690179616825E-02  9.282897364996E-02  8.888101668876E-02
  8.505417083801E-02  8.134509118083E-02  7.775078781768E-02  7.426857603173E-02
  7.089603087555E-02  6.763094592725E-02  6.447129596994E-02  6.141520335554E-02
  5.846090782189E-02  5.560673954091E-02  5.285109518495E-02  5.019241680862E-02
  4.762917335354E-02  4.515984459431E-02  4.278290735429E-02  4.049682383043E-02
  3.830003187626E-02  3.619093710177E-02  3.416790665723E-02  3.222926457608E-02
  3.037328855823E-02  2.859820808080E-02  2.690220372743E-02  2.528340763048E-02
  2.373990492221E-02  2.226973609619E-02  2.087090016591E-02  1.954135853554E-02
  1.827903947184E-02  1.708184307946E-02  1.594764668092E-02  1.487431050401E-02
  1.385968358247E-02  1.290160977916E-02  1.199793384576E-02  1.114650743855E-02
  1.034519501650E-02  9.591879554665E-03  8.884468014076E-03  8.220896517154E-03
  7.599135186135E-03  7.017192610276E-03  6.473119915810E-03  5.965014420481E-03
  5.491022861870E-03  5.049344195630E-03  4.638231965927E-03  4.255996255957E-03
  3.901005231214E-03  3.571686292301E-03  3.266526857425E-03  2.984074797430E-03
  2.722938548225E-03  2.481786926870E-03  2.259348678435E-03  2.054411781033E-03
  1.865822536342E-03  1.692484472333E-03  1.533357084091E-03  1.387454437400E-03
  1.253843658388E-03  1.131643330915E-03  1.020021821704E-03  9.181955513636E-04
  8.254272276779E-04  7.410240556721E-04  6.643359371854E-04  5.947536709870E-04
  5.317071628598E-04  4.746636535991E-04  4.231259715429E-04  3.766308150593E-04
  3.347470693890E-04  2.970741613583E-04  2.632404547424E-04  2.329016884555E-04
  2.057394592618E-04  1.814597503180E-04  1.597915065634E-04  1.404852577494E-04
  1.233117897190E-04  1.080608644179E-04  9.453998899665E-05  8.257323426883E-05
  7.200010269025E-05  6.267444592701E-05  5.446343197505E-05  4.724656168033E-05
  4.091473438594E-05  3.536936230107E-05  3.052153304819E-05  2.629121970241E-05
  2.260653749197E-05  1.940304618662E-05  1.662309706136E-05  1.421522319261E-05
  1.213357172224E-05  1.033737661592E-05  8.790470346867E-06  7.460832855683E-06
  6.320176072422E-06  5.343562238758E-06  4.509054235708E-06  3.797396105912E-06
  3.191721957832E-06  2.677291451697E-06  2.241250092358E-06  1.872412591098E-06
  1.561067605583E-06  1.298802222985E-06  1.078344614534E-06  8.934233588714E-07
  7.386420052837E-07  6.093675248254E-07  5.016313764443E-07  4.120419952503E-07
  3.377075901886E-07  2.761682176453E-07  2.253361752332E-07  1.834438355327E-07
  1.489981123859E-07  1.207408220574E-07  9.761426784929E-08  7.873143938826E-08
  6.335027661236E-08  5.085150342417E-08  4.071958700804E-08  3.252642602049E-08
  2.591741362740E-08  2.059956594054E-08  1.633141983399E-08  1.291450626161E-08
  1.018610402068E-08  8.013142520257E-09  6.287092061554E-09  4.919675791125E-09
  3.839283308801E-09  2.987981699573E-09  2.319031560840E-09  1.794828475383E-09
  1.366197522969E-09  1.051651469667E-09  8.071898574971E-10  6.177474764753E-10
  4.713715476823E-10  3.586066288904E-10  2.719950936456E-10  2.056727048520E-10
  1.550421867646E-10  1.165105702996E-10  8.727851455234E-11  6.517185349542E-11
  4.850733496283E-11  3.598595668432E-11  2.660850280981E-11  1.960888023255E-11
  1.440167842871E-11  1.054105654926E-11  7.688620390420E-12  5.588409539131E-12
  4.047488402067E-12  2.920938373668E-12  2.100294237834E-12  1.504666258697E-12
  1.073948866218E-12  7.636445299053E-13  5.409332757445E-13  3.816992482054E-13
  2.682897958145E-13  1.878330824859E-13  1.309799068348E-13  9.096645108271E-14
  6.291886372859E-14  4.333934404294E-14  2.972789606247E-14  2.030507776080E-14
  1.380962160509E-14  9.351327383373E-15  6.304585700777E-15  4.231641039550E-15
  2.827528246325E-15  1.880734758347E-15  1.245222423543E-15  8.206181587738E-16
  5.382522491155E-16  3.513634302682E-16  2.282592426685E-16  1.475625402618E-16
  9.492362833170E-17  6.075712266787E-17  3.869177072947E-17  2.451388431500E-17
  1.545079742873E-17  9.687415315344E-18  6.041656147478E-18  3.747723089874E-18
  2.312141079482E-18  1.418626646461E-18  8.655658322522E-19  5.251473984418E-19
  3.167976985261E-19  1.900083609162E-19  1.132982361253E-19  6.715878248968E-20
  3.957134622474E-20  2.317532990574E-20  1.348983006749E-20  7.803518559968E-21
  4.485857593255E-21  2.562351566536E-21  1.454242913804E-21  8.199862428999E-22
  4.593180029988E-22  2.555777878577E-22  1.412538535587E-22  7.753718711515E-23
  0.000000000000E+00  0.000000000000E+00  0.000000000000E+00  0.000000000000E+00
  0.000000000000E+00  0.000000000000E+00
</data>
</radfunc>
</valence-charge>
<pseudocore-charge matching-radius="0.500303679008"
 number-of-continuous-derivatives="4">
<annotation model-charge-form="Teter function with specified parameters" />
<radfunc>
<data npts="291">
  1.050650218888E+02  1.050453524347E+02  1.049846738467E+02  1.048842813192E+02
  1.047448009242E+02  1.045615752213E+02  1.043283463062E+02  1.040616776721E+02
  1.037623452415E+02  1.034139547721E+02  1.030221340797E+02  1.025973026511E+02
  1.020853288833E+02  1.015523282801E+02  1.010216098033E+02  1.004124437640E+02
  9.971380428956E+01  9.905436317703E+01  9.831626820224E+01  9.749083175689E+01
  9.656859250901E+01  9.575424032790E+01  9.486577376885E+01  9.389726002366E+01
  9.284246162669E+01  9.169485935156E+01  9.044768632060E+01  8.944277804085E+01
  8.837495212209E+01  8.724119091063E+01  8.603847487640E+01  8.476380955020E+01
  8.341425710716E+01  8.198697303989E+01  8.047924835571E+01  7.888855770711E+01
  7.721261381864E+01  7.544942850303E+01  7.422468621791E+01  7.296006567363E+01
  7.165528988433E+01  7.031019066411E+01  6.892472031244E+01  6.749896380177E+01
  6.603315141240E+01  6.452767174386E+01  6.298308501469E+01  6.140013654275E+01
  5.977977027733E+01  5.812314223059E+01  5.643163363142E+01  5.470686359789E+01
  5.295070109695E+01  5.116527593119E+01  4.935298846339E+01  4.751651776083E+01
  4.565882781346E+01  4.378317145440E+01  4.189309158863E+01  3.999241931787E+01
  3.808526853786E+01  3.617602658045E+01  3.426934047881E+01  3.237009845215E+01
  3.048340623844E+01  2.861455795237E+01  2.676900121260E+01  2.585669161598E+01
  2.495229637095E+01  2.405652046959E+01  2.317006978588E+01  2.229364929677E+01
  2.142796121733E+01  2.057370305369E+01  1.973156557817E+01  1.890223073180E+01
  1.808636946047E+01  1.728463949167E+01  1.649768305996E+01  1.572612459006E+01
  1.497056834754E+01  1.423159606809E+01  1.350976457735E+01  1.280560341409E+01
  1.211961247078E+01  1.145225966623E+01  1.080397866598E+01  1.017516666688E+01
  9.566182262989E+00  8.977343410704E+00  8.408925511193E+00  7.861159628955E+00
  7.334230865296E+00  6.828276905640E+00  6.343386759465E+00  5.879599711277E+00
  5.436904500484E+00  5.015238747224E+00  4.614488640136E+00  4.234488900747E+00
  3.875023037561E+00  3.535823901040E+00  3.216574548550E+00  2.916909425881E+00
  2.636415869274E+00  2.374635928908E+00  2.131068511603E+00  1.905171837084E+00
  1.696366198520E+00  1.504037014315E+00  1.327538154243E+00  1.166195519105E+00
  1.019310849164E+00  8.861657327460E-01  7.660257826766E-01  6.581449446983E-01
  5.617698987826E-01  4.761445113750E-01  4.005142941901E-01  3.341308232738E-01
  2.762560707587E-01  2.261666011204E-01  1.831575838734E-01  1.465465755692E-01
  1.156770257332E-01  8.992146401606E-02  6.868432936192E-02  5.140440639329E-02
  3.755683945494E-02  2.665470079032E-02  1.825009606581E-02  1.193479780653E-02
  7.340405133422E-03  4.138036342832E-03  2.037569172094E-03  7.864518546806E-04
  1.681160792367E-04  3.051082907114E-08  1.314403901903E-04  4.408446809919E-04
  8.332670813938E-04  1.237380769041E-03  1.602548851300E-03  1.895843024390E-03
  2.099101829993E-03  2.206087111166E-03  2.219792842721E-03  2.149954537219E-03
  2.010800060487E-03  1.819074145148E-03  1.592359438472E-03  1.347706882745E-03
  1.100577962009E-03  8.640912437671E-04  6.485560931039E-04  4.612678260854E-04
  3.065312582293E-04  1.858739034558E-04  9.840623431811E-05  4.128458708478E-05
  1.023255019352E-05  7.897055647508E-08  5.274898630603E-06  2.035761329739E-05
  4.033696850795E-05  6.098725350735E-05  7.903607031360E-05  9.224989333415E-05
  9.942348152331E-05  1.002867010487E-04  9.534720090004E-05  8.569048796304E-05
  7.276012661479E-05  5.814004287776E-05  4.335839749911E-05  2.972850089961E-05
  1.823719069718E-05  9.485480455943E-06  3.680659685201E-06  6.739152972986E-07
  3.342940695817E-08  1.140155219378E-06  3.292302263215E-06  5.805022369412E-06
  8.093746863172E-06  9.732784925487E-06  1.048472073170E-05  1.030032727922E-05
  9.292611886299E-06  7.691733826519E-06  5.789511890523E-06  3.882855565635E-06
  2.224688683376E-06  9.889674441411E-07  2.535772668623E-07  1.697386776185E-09
  0.000000000000E+00  0.000000000000E+00  0.000000000000E+00  0.000000000000E+00
  0.000000000000E+00  0.000000000000E+00  0.000000000000E+00  0.000000000000E+00
  0.000000000000E+00  0.000000000000E+00  0.000000000000E+00  0.000000000000E+00
  0.000000000000E+00  0.000000000000E+00  0.000000000000E+00  0.000000000000E+00
  0.000000000000E+00  0.000000000000E+00  0.000000000000E+00  0.000000000000E+00
  0.000000000000E+00  0.000000000000E+00  0.000000000000E+00  0.000000000000E+00
  0.000000000000E+00  0.000000000000E+00  0.000000000000E+00  0.000000000000E+00
  0.000000000000E+00  0.000000000000E+00  0.000000000000E+00  0.000000000000E+00
  0.000000000000E+00  0.000000000000E+00  0.000000000000E+00  0.000000000000E+00
  0.000000000000E+00  0.000000000000E+00  0.000000000000E+00  0.000000000000E+00
  0.000000000000E+00  0.000000000000E+00  0.000000000000E+00  0.000000000000E+00
  0.000000000000E+00  0.000000000000E+00  0.000000000000E+00  0.000000000000E+00
  0.000000000000E+00  0.000000000000E+00  0.000000000000E+00  0.000000000000E+00
  0.000000000000E+00  0.000000000000E+00  0.000000000000E+00  0.000000000000E+00
  0.000000000000E+00  0.000000000000E+00  0.000000000000E+00  0.000000000000E+00
  0.000000000000E+00  0.000000000000E+00  0.000000000000E+00  0.000000000000E+00
  0.000000000000E+00  0.000000000000E+00  0.000000000000E+00  0.000000000000E+00
  0.000000000000E+00  0.000000000000E+00  0.000000000000E+00  0.000000000000E+00
  0.000000000000E+00  0.000000000000E+00  0.000000000000E+00  0.000000000000E+00
  0.000000000000E+00  0.000000000000E+00  0.000000000000E+00  0.000000000000E+00
  0.000000000000E+00  0.000000000000E+00  0.000000000000E+00  0.000000000000E+00
  0.000000000000E+00  0.000000000000E+00  0.000000000000E+00  0.000000000000E+00
  0.000000000000E+00  0.000000000000E+00  0.000000000000E+00  0.000000000000E+00
  0.000000000000E+00  0.000000000000E+00  0.000000000000E+00
</data>
</radfunc>
</pseudocore-charge>
<semilocal-potentials set="scalar_relativistic">
<slps n="3" l="s" rc="1.31478641867" eref="-2.58110529657">
<radfunc>
<data npts="291">
 -4.758081059769E+00 -4.760490786561E+00 -4.767923120816E+00 -4.780217057759E+00
 -4.797291947718E+00 -4.819712015705E+00 -4.848234189899E+00 -4.880823268945E+00
 -4.917375559661E+00 -4.959880494322E+00 -5.007635412841E+00 -5.059355626512E+00
 -5.121604851453E+00 -5.186318184784E+00 -5.250661113300E+00 -5.324400572924E+00
 -5.408821246563E+00 -5.488359638547E+00 -5.577218087761E+00 -5.676384272775E+00
 -5.786923424783E+00 -5.884307937157E+00 -5.990318624486E+00 -6.105601541563E+00
 -6.230827490621E+00 -6.366687842492E+00 -6.513889032659E+00 -6.632162085431E+00
 -6.757517889109E+00 -6.890255424001E+00 -7.030668188662E+00 -7.179040973523E+00
 -7.335646222140E+00 -7.500739962496E+00 -7.674557295588E+00 -7.857307434161E+00
 -8.049168291329E+00 -8.250280626627E+00 -8.389545275432E+00 -8.532982727732E+00
 -8.680598919413E+00 -8.832388022388E+00 -8.988331467441E+00 -9.148396943696E+00
 -9.312537378471E+00 -9.480689901485E+00 -9.652774797696E+00 -9.828694453372E+00
 -1.000833230004E+01 -1.019155176131E+01 -1.037819520737E+01 -1.056808292233E+01
 -1.076101208920E+01 -1.095675579744E+01 -1.115506207786E+01 -1.135565296923E+01
 -1.155822362124E+01 -1.176244143771E+01 -1.196794526434E+01 -1.217434462520E+01
 -1.238121901238E+01 -1.258811723476E+01 -1.279455683349E+01 -1.300002357623E+01
 -1.320397104861E+01 -1.340582037286E+01 -1.360496010066E+01 -1.370331391009E+01
 -1.380074635334E+01 -1.389717195931E+01 -1.399250331856E+01 -1.408665112996E+01
 -1.417952426053E+01 -1.427102982082E+01 -1.436107325826E+01 -1.444955847130E+01
 -1.453638794681E+01 -1.462146292379E+01 -1.470468358563E+01 -1.478594928322E+01
 -1.486515879027E+01 -1.494221059154E+01 -1.501700320311E+01 -1.508943552252E+01
 -1.515940720467E+01 -1.522681905712E+01 -1.529157344633E+01 -1.535357470404E+01
 -1.541272952101E+01 -1.546894731371E+01 -1.552214054870E+01 -1.557222500970E+01
 -1.561911999356E+01 -1.566274842410E+01 -1.570303687679E+01 -1.573991551252E+01
 -1.577331792465E+01 -1.580318090976E+01 -1.582944417901E+01 -1.585205003159E+01
 -1.587094301574E+01 -1.588606960412E+01 -1.589737790986E+01 -1.590481746647E+01
 -1.590833909059E+01 -1.590789483987E+01 -1.590343807227E+01 -1.589492360583E+01
 -1.588230797197E+01 -1.586554975029E+01 -1.584460996861E+01 -1.581945254922E+01
 -1.579004478059E+01 -1.575635779283E+01 -1.571836701536E+01 -1.567605259564E+01
 -1.562939975939E+01 -1.557839909488E+01 -1.552304674684E+01 -1.546334450973E+01
 -1.539929981517E+01 -1.533092561438E+01 -1.525824016286E+01 -1.518126672154E+01
 -1.510003319486E+01 -1.501457173200E+01 -1.492491832171E+01 -1.483111241402E+01
 -1.473319660305E+01 -1.463121640449E+01 -1.452522015929E+01 -1.441525909193E+01
 -1.430138754786E+01 -1.418366343077E+01 -1.406214885642E+01 -1.393691103667E+01
 -1.380802340407E+01 -1.367556698529E+01 -1.353963202930E+01 -1.340031989458E+01
 -1.325774519680E+01 -1.311203821595E+01 -1.296334755772E+01 -1.281184305849E+01
 -1.265771891662E+01 -1.250119702342E+01 -1.234253045644E+01 -1.218200708440E+01
 -1.201995321775E+01 -1.185673722150E+01 -1.169277298826E+01 -1.152852314903E+01