<?xml version="1.0" encoding="UTF-8" ?>
<psml version="1.1" energy_unit="hartree" length_unit="bohr"
 uuid="3a02a710-be46-11e7-4789-2cd7d7a309a0"
 xmlns="http://esl.cecam.org/PSML/ns/1.1">
<provenance creator="ONCVPSP-3.3.0+psml-3.3.0-73 (scalar-relativistic)"
 date="2017-10-31">
<annotation action="semilocal-pseudopotential-generation"
 action-cont="projectors-generation" />
<input-file name="oncvpsp-input">
<![CDATA[# atsym z nc nv iexc psfile
Po 84 12 3 4 upf
# n l f
1 0 2.0
2 0 2.0
2 1 6.0
3 0 2.0
3 1 6.0
3 2 10.0
4 0 2.0
4 1 6.0
4 2 10.0
5 0 2.0
5 1 6.0
4 3 14.0
5 2 10.0
6 0 2.0
6 1 4.0
# lmax
2
# l rc ep ncon nbas qcut
0 2.2 0.0 4 7 3.6
1 2.2 0.0 4 8 4.6
2 1.9 0.0 4 8 8.0
# lloc lpopt rc5 dvloc0
4 5 1.9 0.0
# l nproj debl
0 2 2.6
1 2 2.5
2 2 2.5
# icmod fcfact
3 6 1.34
# epsh1 epsh2 depsh
-12.0 12.0 0.02
# rlmax drl
6.0 0.01
 0
]]>
</input-file>
</provenance>
<pseudo-atom-spec atomic-label="Po" atomic-number="84" z-pseudo="16"
 flavor="Hamann&apos;s oncvpsp" relativity="scalar" spin-dft="no"
 core-corrections="yes">
<annotation pseudo-energy="-82.9309734577" />
<exchange-correlation>
<annotation oncvpsp-xc-code="4" oncvpsp-xc-type="GGA -- Perdew-Burke-Ernzerhof" />
<libxc-info number-of-functionals="2">
<functional name="Perdew, Burke &amp; Ernzerhof (GGA)" type="exchange" id="101" />
<functional name="Perdew, Burke &amp; Ernzerhof (GGA)" type="correlation"
 id="130" />
</libxc-info>
</exchange-correlation>
<valence-configuration total-valence-charge="16">
<shell n="5" l="d" occupation="10" />
<shell n="6" l="s" occupation="2" />
<shell n="6" l="p" occupation="4" />
</valence-configuration>
</pseudo-atom-spec>
<grid npts="457">
<annotation type="sampled from oncvpsp log grid"
 recipe="r(i:1..N) = r1*exp(a*(i-1)) + r=0; resampled"
 recipe-cont="r1: scale; a: step" scale="0.595238095238E-05"
 step="0.119285708653E-01" delta="0.500000000000E-02" rmax="44.0605889801" />
<grid-data>
  0.000000000000E+00  5.031300802255E-03  1.004962851020E-02  1.507604528350E-02
  2.031422441398E-02  2.548179300022E-02  3.084027084741E-02  3.601345981203E-02
  4.106298189261E-02  4.626532407434E-02  5.150865635998E-02  5.666623015056E-02
  6.234023300928E-02  6.776914535508E-02  7.279726845657E-02  7.819845251068E-02
  8.400037672722E-02  8.916282012991E-02  9.464253379881E-02  1.004590163345E-01
  1.066329646705E-01  1.118442171143E-01  1.173101483258E-01  1.230432046939E-01
  1.290564408741E-01  1.353635495152E-01  1.419788924385E-01  1.471517127873E-01
  1.525129982658E-01  1.580696153610E-01  1.638286807322E-01  1.697975703246E-01
  1.759839288168E-01  1.823956794117E-01  1.890410339838E-01  1.959285035968E-01
  2.030669094043E-01  2.104653939473E-01  2.155468704188E-01  2.207510340582E-01
  2.260808470245E-01  2.315393429950E-01  2.371296288923E-01  2.428548866523E-01
  2.487183750356E-01  2.547234314824E-01  2.608734740122E-01  2.671720031687E-01
  2.736226040132E-01  2.802289481645E-01  2.869947958890E-01  2.939239982409E-01
  3.010204992545E-01  3.082883381885E-01  3.157316518257E-01  3.233546768274E-01
  3.311617521447E-01  3.391573214885E-01  3.473459358585E-01  3.557322561339E-01
  3.643210557260E-01  3.731172232954E-01  3.821257655346E-01  3.913518100177E-01
  4.008006081188E-01  4.104775380012E-01  4.203881076787E-01  4.254327649708E-01
  4.305379581505E-01  4.357044136483E-01  4.409328666121E-01  4.462240610114E-01
  4.515787497436E-01  4.569976947405E-01  4.624816670774E-01  4.680314470823E-01
  4.736478244473E-01  4.793315983407E-01  4.850835775207E-01  4.909045804510E-01
  4.967954354164E-01  5.027569806414E-01  5.087900644091E-01  5.148955451820E-01
  5.210742917242E-01  5.273271832249E-01  5.336551094236E-01  5.400589707367E-01
  5.465396783855E-01  5.530981545261E-01  5.597353323804E-01  5.664521563690E-01
  5.732495822454E-01  5.801285772324E-01  5.870901201592E-01  5.941352016011E-01
  6.012648240203E-01  6.084800019085E-01  6.157817619314E-01  6.231711430746E-01
  6.306491967915E-01  6.382169871530E-01  6.458755909988E-01  6.536260980908E-01
  6.614696112679E-01  6.694072466031E-01  6.774401335624E-01  6.855694151651E-01
  6.937962481471E-01  7.021218031249E-01  7.105472647624E-01  7.190738319395E-01
  7.277027179228E-01  7.364351505379E-01  7.452723723443E-01  7.542156408125E-01
  7.632662285022E-01  7.724254232442E-01  7.816945283232E-01  7.910748626630E-01
  8.005677610150E-01  8.101745741472E-01  8.198966690369E-01  8.297354290654E-01
  8.396922542142E-01  8.497685612647E-01  8.599657839999E-01  8.702853734079E-01
  8.807287978888E-01  8.912975434635E-01  9.019931139850E-01  9.128170313529E-01
  9.237708357291E-01  9.348560857578E-01  9.460743587869E-01  9.574272510924E-01
  9.689163781055E-01  9.805433746428E-01  9.923098951385E-01  1.004217613880E+00
  1.016268225247E+00  1.028463443950E+00  1.040805005277E+00  1.053294665340E+00
  1.065934201324E+00  1.078725411740E+00  1.091670116681E+00  1.104770158081E+00
  1.118027399978E+00  1.131443728778E+00  1.145021053523E+00  1.158761306166E+00
  1.172666441840E+00  1.186738439142E+00  1.200979300412E+00  1.215391052016E+00
  1.229975744641E+00  1.244735453576E+00  1.259672279019E+00  1.274788346367E+00
  1.290085806524E+00  1.305566836202E+00  1.321233638237E+00  1.337088441895E+00
  1.353133503198E+00  1.369371105237E+00  1.385803558499E+00  1.402433201201E+00
  1.419262399616E+00  1.436293548411E+00  1.453529070992E+00  1.470971419844E+00
  1.488623076882E+00  1.506486553805E+00  1.524564392450E+00  1.542859165160E+00
  1.561373475142E+00  1.580109956843E+00  1.599071276326E+00  1.618260131641E+00
  1.637679253221E+00  1.657331404260E+00  1.677219381111E+00  1.697346013684E+00
  1.717714165848E+00  1.738326735839E+00  1.759186656669E+00  1.780296896549E+00
  1.801660459307E+00  1.823280384819E+00  1.845159749437E+00  1.867301666430E+00
  1.889709286427E+00  1.912385797864E+00  1.935334427439E+00  1.958558440568E+00
  1.982061141855E+00  2.005845875557E+00  2.029916026064E+00  2.054275018377E+00
  2.078926318597E+00  2.103873434420E+00  2.129119915633E+00  2.154669354621E+00
  2.180525386876E+00  2.206691691519E+00  2.233171991817E+00  2.259970055719E+00
  2.287089696387E+00  2.314534772744E+00  2.342309190017E+00  2.370416900297E+00
  2.398861903101E+00  2.427648245938E+00  2.456780024889E+00  2.486261385188E+00
  2.516096521810E+00  2.546289680072E+00  2.576845156233E+00  2.607767298108E+00
  2.639060505685E+00  2.670729231753E+00  2.702777982534E+00  2.735211318325E+00
  2.768033854144E+00  2.801250260394E+00  2.834865263519E+00  2.868883646681E+00
  2.903310250441E+00  2.938149973447E+00  2.973407773128E+00  3.009088666406E+00
  3.045197730402E+00  3.081740103167E+00  3.118720984405E+00  3.156145636218E+00
  3.194019383853E+00  3.232347616459E+00  3.271135787856E+00  3.310389417311E+00
  3.350114090318E+00  3.390315459402E+00  3.430999244915E+00  3.472171235854E+00
  3.513837290684E+00  3.556003338173E+00  3.598675378231E+00  3.641859482769E+00
  3.685561796563E+00  3.729788538121E+00  3.774546000579E+00  3.819840552586E+00
  3.865678639217E+00  3.912066782887E+00  3.959011584282E+00  4.006519723293E+00
  4.054597959973E+00  4.103253135493E+00  4.152492173119E+00  4.202322079196E+00
  4.252749944146E+00  4.303782943476E+00  4.355428338798E+00  4.407693478863E+00
  4.460585800610E+00  4.514112830217E+00  4.568282184180E+00  4.623101570390E+00
  4.678578789234E+00  4.734721734705E+00  4.791538395522E+00  4.849036856268E+00
  4.907225298543E+00  4.966112002126E+00  5.025705346151E+00  5.086013810305E+00
  5.147045976029E+00  5.208810527741E+00  5.271316254074E+00  5.334572049123E+00
  5.398586913712E+00  5.463369956677E+00  5.528930396157E+00  5.595277560911E+00
  5.662420891642E+00  5.730369942342E+00  5.799134381650E+00  5.868723994229E+00
  5.939148682160E+00  6.010418466346E+00  6.082543487942E+00  6.155534009798E+00
  6.229400417915E+00  6.304153222930E+00  6.379803061605E+00  6.456360698345E+00
  6.533837026725E+00  6.612243071045E+00  6.691589987898E+00  6.771889067753E+00
  6.853151736566E+00  6.935389557405E+00  7.018614232093E+00  7.102837602878E+00
  7.188071654113E+00  7.274328513962E+00  7.361620456130E+00  7.449959901603E+00
  7.539359420423E+00  7.629831733468E+00  7.721389714269E+00  7.814046390841E+00
  7.907814947531E+00  8.002708726901E+00  8.098741231624E+00  8.195926126403E+00
  8.294277239920E+00  8.393808566799E+00  8.494534269601E+00  8.596468680836E+00
  8.699626305006E+00  8.804021820666E+00  8.909670082514E+00  9.016586123504E+00
  9.124785156986E+00  9.234282578870E+00  9.345093969817E+00  9.457235097454E+00
  9.570721918624E+00  9.685570581647E+00  9.801797428627E+00  9.919418997771E+00
  1.003845202574E+01  1.015891345005E+01  1.028082041145E+01  1.040419025639E+01
  1.052904053947E+01  1.065538902594E+01  1.078325369425E+01  1.091265273858E+01
  1.104360457145E+01  1.117612782630E+01  1.131024136022E+01  1.144596425654E+01
  1.158331582762E+01  1.172231561755E+01  1.186298340496E+01  1.200533920582E+01
  1.214940327629E+01  1.229519611561E+01  1.244273846900E+01  1.259205133062E+01
  1.274315594659E+01  1.289607381795E+01  1.305082670376E+01  1.320743662421E+01
  1.336592586370E+01  1.352631697407E+01  1.368863277775E+01  1.385289637109E+01
  1.401913112754E+01  1.418736070107E+01  1.435760902948E+01  1.452990033784E+01
  1.470425914189E+01  1.488071025159E+01  1.505927877461E+01  1.523999011991E+01
  1.542287000135E+01  1.560794444136E+01  1.579523977466E+01  1.598478265196E+01
  1.617660004378E+01  1.637071924430E+01  1.656716787524E+01  1.676597388974E+01
  1.696716557642E+01  1.717077156333E+01  1.737682082209E+01  1.758534267196E+01
  1.779636678402E+01  1.800992318543E+01  1.822604226365E+01  1.844475477082E+01
  1.866609182807E+01  1.889008493001E+01  1.911676594917E+01  1.934616714056E+01
  1.957832114624E+01  1.981326100000E+01  2.005102013200E+01  2.029163237358E+01
  2.053513196206E+01  2.078155354561E+01  2.103093218816E+01  2.128330337441E+01
  2.153870301491E+01  2.179716745109E+01  2.205873346050E+01  2.232343826202E+01
  2.259131952117E+01  2.286241535542E+01  2.313676433969E+01  2.341440551176E+01
  2.369537837791E+01  2.397972291844E+01  2.426747959346E+01  2.455868934858E+01
  2.485339362077E+01  2.515163434422E+01  2.545345395635E+01  2.575889540382E+01
  2.606800214867E+01  2.638081817445E+01  2.669738799255E+01  2.701775664846E+01
  2.734196972824E+01  2.767007336498E+01  2.800211424536E+01  2.833813961630E+01
  2.867819729170E+01  2.902233565920E+01  2.937060368711E+01  2.972305093135E+01
  3.007972754253E+01  3.044068427304E+01  3.080597248431E+01  3.117564415413E+01
  3.154975188398E+01  3.192834890658E+01  3.231148909346E+01  3.269922696258E+01
  3.309161768614E+01  3.348871709837E+01  3.389058170355E+01  3.429726868399E+01
  3.470883590820E+01  3.512534193910E+01  3.554684604237E+01  3.597340819488E+01
  3.640508909321E+01  3.684195016233E+01  3.728405356428E+01  3.773146220705E+01
  3.818423975354E+01  3.864245063058E+01  3.910616003815E+01  3.957543395860E+01
  4.005033916611E+01  4.053094323610E+01  4.101731455493E+01  4.150952232959E+01
  4.200763659755E+01  4.251172823672E+01  4.302186897556E+01  4.353813140327E+01
  4.406058898011E+01
</grid-data>
</grid>
<valence-charge total-charge="16" is-unscreening-charge="yes"
 rescaled-to-z-pseudo="no">
<radfunc>
<data npts="457">
  4.449371594630E-03  4.453021797765E-03  4.465589601167E-03  4.492080905022E-03
  4.543453051345E-03  4.630582146217E-03  4.776679722032E-03  4.992188922382E-03
  5.295939274117E-03  5.732226340508E-03  6.329824345017E-03  7.106435550171E-03
  8.221431773364E-03  9.591764983156E-03  1.117035458691E-02  1.324794940313E-02
  1.598364057860E-02  1.891537611847E-02  2.260386093120E-02  2.724418534009E-02
  3.308095131803E-02  3.881517160660E-02  4.570095488517E-02  5.396674625413E-02
  6.388500162799E-02  7.578019984506E-02  9.003815526499E-02  1.025545986205E-01
  1.168796866082E-01  1.332671533924E-01  1.520043553815E-01  1.734162457958E-01
  1.978697015895E-01  2.257782033465E-01  2.576068586158E-01  2.938777457546E-01
  3.351755380169E-01  3.821533456068E-01  4.169834729136E-01  4.548949035604E-01
  4.961394575199E-01  5.409863577965E-01  5.897229391503E-01  6.426553005114E-01
  7.001088817763E-01  7.624289426967E-01  8.299809183098E-01  9.031506218115E-01
  9.823442619566E-01  1.067988237993E+00  1.160528670838E+00  1.260430624710E+00
  1.368176968853E+00  1.484266824309E+00  1.609213536180E+00  1.743542107421E+00
  1.887786026265E+00  2.042483416001E+00  2.208172433265E+00  2.385385839650E+00
  2.574644671513E+00  2.776450934852E+00  2.991279256450E+00  3.219567429679E+00
  3.461705803909E+00  3.718025481074E+00  3.988785302142E+00  4.129637921180E+00
  4.274157630691E+00  4.422349940207E+00  4.574212971182E+00  4.729736918248E+00
  4.888903496316E+00  5.051685374959E+00  5.218045601717E+00  5.387937016219E+00
  5.561301657278E+00  5.738070165374E+00  5.918161183238E+00  6.101480757552E+00
  6.287921745074E+00  6.477363226837E+00  6.669669934386E+00  6.864691692361E+00
  7.062262882065E+00  7.262201931014E+00  7.464310833783E+00  7.668374709821E+00
  7.874161404208E+00  8.081421137663E+00  8.289886212388E+00  8.499270780611E+00
  8.709270682920E+00  8.919563363706E+00  9.129807871162E+00  9.339644949425E+00
  9.548697230478E+00  9.756569533439E+00  9.962849278757E+00  1.016710702469E+01
  1.036889713315E+01  1.056775857171E+01  1.076321585801E+01  1.095478015234E+01
  1.114195050335E+01  1.132421525116E+01  1.150105359106E+01  1.167193729998E+01
  1.183633262662E+01  1.199370234473E+01  1.214350796771E+01  1.228521212069E+01
  1.241828106471E+01  1.254218736575E+01  1.265641269900E+01  1.276045077696E+01
  1.285381038755E+01  1.293601852611E+01  1.300662360291E+01  1.306519870534E+01
  1.311134489174E+01  1.314469449136E+01  1.316491438295E+01  1.317170922225E+01
  1.316482458688E+01  1.314405000542E+01  1.310922183601E+01  1.306022595901E+01
  1.299700024714E+01  1.291953677676E+01  1.282788374362E+01  1.272214704764E+01
  1.260249151223E+01  1.246914170551E+01  1.232238233353E+01  1.216255817840E+01
  1.199007355806E+01  1.180539128891E+01  1.160903113724E+01  1.140156775128E+01
  1.118362807130E+01  1.095588822228E+01  1.071906990014E+01  1.047393626998E+01
  1.022128740211E+01  9.961955279168E+00  9.696798414874E+00  9.426696132347E+00
  9.152542556516E+00  8.875240381523E+00  8.595694479576E+00  8.314805422453E+00
  8.033462990606E+00  7.752539747473E+00  7.472884758013E+00  7.195317530551E+00
  6.920622259725E+00  6.649542445591E+00  6.382775959729E+00  6.120970623655E+00
  5.864720357856E+00  5.614561951659E+00  5.370972494801E+00  5.134367501447E+00
  4.905099746409E+00  4.683458821970E+00  4.469671411992E+00  4.263902268402E+00
  4.066255863717E+00  3.876778682482E+00  3.695462104421E+00  3.522245823060E+00
  3.357021735730E+00  3.199638234369E+00  3.049904821492E+00  2.907596972192E+00
  2.772461161062E+00  2.644219972451E+00  2.522577213392E+00  2.407222950860E+00
  2.297838398384E+00  2.194100581550E+00  2.095686717223E+00  2.002278247392E+00
  1.913564475215E+00  1.829245758057E+00  1.749036220068E+00  1.672665955113E+00
  1.599882699707E+00  1.530452965083E+00  1.464162627745E+00  1.400816988719E+00
  1.340240323337E+00  1.282274955509E+00  1.226779526074E+00  1.173625565755E+00
  1.122693581949E+00  1.073872566021E+00  1.027059348477E+00  9.821579611237E-01
  9.390789823616E-01  8.977388900696E-01  8.580594455253E-01  8.199671300012E-01
  7.833926532074E-01  7.482705496502E-01  7.145388994872E-01  6.821392342745E-01
  6.510165146216E-01  6.211189481309E-01  5.923977478741E-01  5.648069396899E-01
  5.383031624106E-01  5.128454777358E-01  4.883951883952E-01  4.649156652498E-01
  4.423721836999E-01  4.207317696380E-01  3.999630550868E-01  3.800361434520E-01
  3.609224845009E-01  3.425947587364E-01  3.250267710339E-01  3.081933532482E-01
  2.920702754635E-01  2.766341655177E-01  2.618624364044E-01  2.477332211275E-01
  2.342253145685E-01  2.213181219157E-01  2.089916131984E-01  1.972262834686E-01
  1.860031181795E-01  1.753035633161E-01  1.651094998476E-01  1.554032220834E-01
  1.461674195363E-01  1.373851619107E-01  1.290398868607E-01  1.211153901786E-01
  1.135958181051E-01  1.064656614676E-01  9.970975138334E-02  9.331325627988E-02
  8.726168002925E-02  8.154086096135E-02  7.613697161270E-02  7.103651903235E-02
  6.622634550489E-02  6.169362956275E-02  5.742588717359E-02  5.341097300093E-02
  4.963708164652E-02  4.609274879250E-02  4.276685216914E-02  3.964861228098E-02
  3.672759283079E-02  3.399370078631E-02  3.143718604058E-02  2.904864062224E-02
  2.681899741808E-02  2.473952837606E-02  2.280184216358E-02  2.099788126245E-02
  1.931991848919E-02  1.776055293638E-02  1.631270533832E-02  1.496961287128E-02
  1.372482340598E-02  1.257218923614E-02  1.150586031362E-02  1.052027702549E-02
  9.610162553662E-03  8.770514861224E-03  7.996598352650E-03  7.283935257362E-03
  6.628296787160E-03  6.025694118523E-03  5.472369250391E-03  4.964785786895E-03
  4.499619692788E-03  4.073750066980E-03  3.684249976834E-03  3.328377392691E-03
  3.003566258639E-03  2.707417731878E-03  2.437691619203E-03  2.192298035291E-03
  1.969289303580E-03  1.766852116782E-03  1.583299970364E-03  1.417065878891E-03
  1.266695381843E-03  1.130839842513E-03  1.008250040895E-03  8.977700590646E-04
  7.983314554506E-04  7.089477226834E-04  6.287090222226E-04  5.567771878718E-04
  4.923809894358E-04  4.348116472056E-04  3.834185876125E-04  3.376054302554E-04
  2.968261965308E-04  2.605817302544E-04  2.284163209199E-04  1.999145205734E-04
  1.746981456448E-04  1.524234554734E-04  1.327784996493E-04  1.154806266714E-04
  1.002741467694E-04  8.692814205929E-05  7.523441748495E-05  6.500558624628E-05
  5.607328363028E-05  4.828650334490E-05  4.151005061276E-05  3.562310641848E-05
  3.051789742235E-05  2.609846616256E-05  2.227953626978E-05  1.898546751890E-05
  1.614929564435E-05  1.371185195275E-05  1.162095788005E-05  9.830689763021E-06
  8.300709226774E-06  6.995654732075E-06  5.884589977476E-06  4.940505012271E-06
  4.139866085093E-06  3.462210428888E-06  2.889782364621E-06  2.407207291730E-06
  2.001200321677E-06  1.660306500333E-06  1.374669753870E-06  1.135827879976E-06
  9.365310901859E-07  7.705817888458E-07  6.326934485781E-07  5.183666103040E-07
  4.237801971346E-07  3.456964851849E-07  2.813782201923E-07  2.285165063964E-07
  1.851682233223E-07  1.497018468078E-07  1.207506628960E-07  9.717246717537E-08
  7.801493801246E-08  6.248596013431E-08  4.992825549676E-08  3.979775167503E-08
  3.164518450955E-08  2.510049183853E-08  1.985960925931E-08  1.567332740209E-08
  1.233791358633E-08  9.687239372235E-09  7.586189814215E-09  5.925160553325E-09
  4.615475617609E-09  3.585582278863E-09  2.777899867813E-09  2.146217380886E-09
  1.653550302914E-09  1.270380581377E-09  9.732153576993E-10  7.434101071922E-10
  5.662104588651E-10  4.299743374546E-10  3.255423527689E-10  2.457296986843E-10
  1.849173431633E-10  1.387241041810E-10  1.037444138767E-10  7.733926187870E-11
  5.747005493073E-11  4.256700015810E-11  3.142517118606E-11  2.312269966676E-11
  1.695659239497E-11  1.239254279142E-11  9.025816404330E-12  6.550869828128E-12
  4.737833578316E-12  3.414370977194E-12  2.451732935854E-12  1.754075995973E-12
  1.250309226158E-12  8.878937664643E-13  6.281445960485E-13  4.426837299396E-13
  3.107726690991E-13  2.173137273966E-13  1.513582499870E-13  1.049974809857E-13
  7.254116082918E-14  4.991162316956E-14  3.419864724973E-14  2.333374279504E-14
  1.585280310080E-14  1.072387070909E-14  7.222678909298E-15  4.843099553829E-15
  3.232984838073E-15  2.148402625891E-15  1.421136135339E-15  9.357065491135E-16
  6.132016571885E-16  3.999466138784E-16  2.596036967543E-16  1.676890296942E-16
  1.077848796000E-16  6.893576608224E-17  4.386708642702E-17  2.777243352341E-17
  1.749214806211E-17  1.095971809929E-17  6.830545652938E-18  4.234318087232E-18
  2.610691299699E-18  1.600822101918E-18  9.761517060873E-19  5.919009991252E-19
  3.568689417152E-19  2.139273619704E-19  1.274944561867E-19  7.553574650063E-20
  4.448546182027E-20  2.604084621108E-20  1.515056949704E-20  0.000000000000E+00
  0.000000000000E+00  0.000000000000E+00  0.000000000000E+00  0.000000000000E+00
  0.000000000000E+00  0.000000000000E+00  0.000000000000E+00  0.000000000000E+00
  0.000000000000E+00  0.000000000000E+00  0.000000000000E+00  0.000000000000E+00
  0.000000000000E+00  0.000000000000E+00  0.000000000000E+00  0.000000000000E+00
  0.000000000000E+00  0.000000000000E+00  0.000000000000E+00  0.000000000000E+00
  0.000000000000E+00
</data>
</radfunc>
</valence-charge>
<pseudocore-charge matching-radius="0.980543374643"
 number-of-continuous-derivatives="4">
<annotation model-charge-form="Teter function with specified parameters" />
<radfunc>
<data npts="290">
  7.330973815577E+01  7.330634202674E+01  7.329618952309E+01  7.327925054988E+01
  7.325439295550E+01  7.322267159713E+01  7.318223659968E+01  7.313592600389E+01
  7.308384315501E+01  7.302309084614E+01  7.295459257936E+01  7.288011556058E+01
  7.279007225696E+01  7.269599202218E+01  7.260196811748E+01  7.249361595240E+01
  7.236877714352E+01  7.225037560402E+01  7.211719088727E+01  7.196740819171E+01
  7.179899825872E+01  7.164934401994E+01  7.148504229016E+01  7.130469654253E+01
  7.110678489147E+01  7.088965049564E+01  7.065149159225E+01  7.045790398791E+01
  7.025050648015E+01  7.002835794098E+01  6.979045987403E+01  6.953575398349E+01
  6.926311982204E+01  6.897137255873E+01  6.865926091485E+01  6.832546532415E+01
  6.796859638302E+01  6.758719366650E+01  6.731854164530E+01  6.703783448777E+01
  6.674458627007E+01  6.643829700749E+01  6.611845284096E+01  6.578452630610E+01
  6.543597669423E+01  6.507225051533E+01  6.469278207379E+01  6.429699416868E+01
  6.388429893061E+01  6.345409880860E+01  6.300578772067E+01  6.253875238282E+01
  6.205237383195E+01  6.154602915858E+01  6.101909346631E+01  6.047094207508E+01
  5.990095298616E+01  5.930850962676E+01  5.869300389252E+01  5.805383950602E+01
  5.739043570909E+01  5.670223130634E+01  5.598868907611E+01  5.524930056393E+01
  5.448359127186E+01  5.369112625449E+01  5.287151612994E+01  5.245142400321E+01
  5.202442351005E+01  5.159048172477E+01  5.114956985032E+01  5.070166345482E+01
  5.024674271438E+01  4.978479266195E+01  4.931580344201E+01  4.883977057092E+01
  4.835669520266E+01  4.786658439960E+01  4.736945140808E+01  4.686531593836E+01
  4.635420444841E+01  4.583615043132E+01  4.531119470549E+01  4.477938570726E+01
  4.424077978524E+01  4.369544149564E+01  4.314344389787E+01  4.258486884953E+01
  4.201980729997E+01  4.144835958144E+01  4.087063569677E+01  4.028675560244E+01
  3.969684948596E+01  3.910105803629E+01  3.849953270581E+01  3.789243596262E+01
  3.727994153161E+01  3.666223462263E+01  3.603951214429E+01  3.541198290148E+01
  3.477986777489E+01  3.414339988071E+01  3.350282470832E+01  3.285840023429E+01
  3.221039701024E+01  3.155909822266E+01  3.090479972242E+01  3.024781002163E+01
  2.958845025566E+01  2.892705410803E+01  2.826396769564E+01  2.759954941229E+01
  2.693416972787E+01  2.626821094107E+01  2.560206688335E+01  2.493614257184E+01
  2.427085380903E+01  2.360662672743E+01  2.294389727685E+01  2.228311065297E+01
  2.162472066526E+01  2.096918904287E+01  2.031698467749E+01  1.966858280195E+01
  1.902446410407E+01  1.838511377533E+01  1.775102049445E+01  1.712267534606E+01
  1.650057067550E+01  1.588519888074E+01  1.527705114332E+01  1.467661610047E+01
  1.408437846114E+01  1.350081756936E+01  1.292640591889E+01  1.236160762368E+01
  1.180687684939E+01  1.126265621194E+01  1.072937514955E+01  1.020744827567E+01
  9.697273720684E+00  9.199231470997E+00  8.713681714997E+00  8.240963205674E+00
  7.781391650608E+00  7.335258140481E+00  6.902827627820E+00  6.484337468152E+00
  6.079996036157E+00  5.689981429700E+00  5.314440274832E+00  4.953486644969E+00
  4.607201107403E+00  4.275629910157E+00  3.958784321891E+00  3.656640137054E+00
  3.369137357896E+00  3.096180064070E+00  2.837636479598E+00  2.593339245732E+00
  2.363085906878E+00  2.146639615135E+00  1.943730057233E+00  1.754054605683E+00
  1.577279693790E+00  1.413042411898E+00  1.260952319760E+00  1.120593467384E+00
  9.915266140074E-01  8.732916321763E-01  7.654100811160E-01  6.673879308959E-01
  5.787184162116E-01  4.988849960755E-01  4.273643933346E-01  3.636296857848E-01
  3.071534187856E-01  2.574107077489E-01  2.138822977370E-01  1.760575467161E-01
  1.434372988137E-01  1.155366142686E-01  9.188732367913E-02  7.204037566532E-02
  5.556794918833E-02  4.206530451194E-02  3.115235013318E-02  2.247490692615E-02
  1.570565518692E-02  1.054475517601E-02  6.720137047656E-03  3.987461634394E-03
  2.129759307208E-03  9.567599286537E-04  3.039326182303E-04  3.125950829410E-05
  2.177273164895E-05  1.798883956098E-04  4.295751138244E-04  7.123976490098E-04
  9.854782461092E-04  1.219419207638E-03  1.396230110683E-03  1.507301750902E-03
  1.551466423424E-03  1.533180555179E-03  1.460861072170E-03  1.345401345893E-03
  1.198886284066E-03  1.033519318044E-03  8.607669301438E-04  6.907192190205E-04
  5.316580936850E-04  3.898182912726E-04  2.693207927550E-04  1.722536013097E-04
  9.887144753616E-05  4.788393970342E-05  1.680106849003E-05  2.305816029989E-06
  6.258447550465E-07  7.879712872028E-06  2.037756916468E-05  3.486154683564E-05
  4.867678300220E-05  5.986978647649E-05  6.721640332658E-05  7.018654569306E-05
  6.885685372738E-05  6.378531673038E-05  5.586343472451E-05  4.616170081511E-05
  3.578307775077E-05  2.573688261739E-05  1.684232827435E-05  9.667219485460E-06
  4.503332958870E-06  1.376204714904E-06  8.376420747519E-08  2.557936168589E-07
  1.424764956706E-06  3.098317111973E-06  4.824455321375E-06  6.242339579639E-06
  7.114021139988E-06  7.335354446445E-06  6.927183393628E-06  6.010411239548E-06
  4.770402694452E-06  3.417120568649E-06  2.147379647924E-06  1.114658030300E-06
  4.102244644859E-07  5.720886326592E-08  0.000000000000E+00  0.000000000000E+00
  0.000000000000E+00  0.000000000000E+00  0.000000000000E+00  0.000000000000E+00
  0.000000000000E+00  0.000000000000E+00  0.000000000000E+00  0.000000000000E+00
  0.000000000000E+00  0.000000000000E+00  0.000000000000E+00  0.000000000000E+00
  0.000000000000E+00  0.000000000000E+00  0.000000000000E+00  0.000000000000E+00
  0.000000000000E+00  0.000000000000E+00  0.000000000000E+00  0.000000000000E+00
  0.000000000000E+00  0.000000000000E+00  0.000000000000E+00  0.000000000000E+00
  0.000000000000E+00  0.000000000000E+00  0.000000000000E+00  0.000000000000E+00
  0.000000000000E+00  0.000000000000E+00  0.000000000000E+00  0.000000000000E+00
  0.000000000000E+00  0.000000000000E+00
</data>
</radfunc>
</pseudocore-charge>
<semilocal-potentials set="scalar_relativistic">
<slps n="6" l="s" rc="2.20669169152" eref="-0.621522189638">
<radfunc>
<data npts="290">
  3.241270782697E+01  3.239365482783E+01  3.233678063628E+01  3.224216668089E+01
  3.210394842604E+01  3.192863738952E+01  3.170689516309E+01  3.145527772942E+01
  3.117524724859E+01  3.085248350732E+01  3.049348307789E+01  3.010893639374E+01
  2.965187781903E+01  2.918328012773E+01  2.872384881692E+01  2.820509833479E+01
  2.762115779129E+01  2.708046068899E+01  2.648698432026E+01  2.583747496824E+01
  2.512891066873E+01  2.451772632528E+01  2.386586611940E+01  2.317240957071E+01
  2.243672120037E+01  2.165849790959E+01  2.083781551848E+01  2.019472289283E+01
  1.952839748112E+01  1.883937320509E+01  1.812834506477E+01  1.739617398918E+01
  1.664388968122E+01  1.587269122186E+01  1.508394523811E+01  1.427918149071E+01
  1.346008579907E+01  1.262849029112E+01  1.206811476453E+01  1.150366775115E+01
  1.093578324874E+01  1.036511423388E+01  9.792330113901E+00  9.218114039650E+00
  8.643160103306E+00  8.068170447589E+00  7.493852313918E+00  6.920915058129E+00
  6.350067162839E+00  5.782013275528E+00  5.217451300884E+00  4.657069574990E+00
  4.101544147418E+00  3.551536195411E+00  3.007689592033E+00  2.470628647493E+00
  1.940956039937E+00  1.419250948842E+00  9.060674008112E-01  4.019328341887E-01
 -9.265311454690E-02 -5.772196030233E-01 -1.051325357584E+00 -1.514559237145E+00
 -1.966540596155E+00 -2.406919459250E+00 -2.835376522703E+00 -3.045042948806E+00
 -3.251622999973E+00 -3.455085298381E+00 -3.655400330650E+00 -3.852540432769E+00
 -4.046479773731E+00 -4.237194338090E+00 -4.424661907609E+00 -4.608862042194E+00
 -4.789776060323E+00 -4.967387019157E+00 -5.141679694530E+00 -5.312640561035E+00
 -5.480257772396E+00 -5.644521142338E+00 -5.805422126156E+00 -5.962953803186E+00
 -6.117110860403E+00 -6.267889577319E+00 -6.415287812420E+00 -6.559304991317E+00
 -6.699942096841E+00 -6.837201661256E+00 -6.971087760811E+00 -7.101606012806E+00
 -7.228763575375E+00 -7.352569150165E+00 -7.473032988076E+00 -7.590166898253E+00
 -7.703984260446E+00 -7.814500040915E+00 -7.921730811963E+00 -8.025694775222E+00
 -8.126411788732E+00 -8.223903397859E+00 -8.318192870042E+00 -8.409305233295E+00
 -8.497267318372E+00 -8.582107804355E+00 -8.663857267484E+00 -8.742548232787E+00
 -8.818215228107E+00 -8.890894839956E+00 -8.960625770483E+00 -9.027448894763E+00
 -9.091407317423E+00 -9.152546427508E+00 -9.210913950333E+00 -9.266559994884E+00
 -9.319537095249E+00 -9.369900244335E+00 -9.417706918085E+00 -9.463017088231E+00
 -9.505893221573E+00 -9.546400263683E+00 -9.584605604939E+00 -9.620579026757E+00
 -9.654392625955E+00 -9.686120715256E+00 -9.715839698045E+00 -9.743627915646E+00
 -9.769565465570E+00 -9.793733989390E+00 -9.816216429118E+00 -9.837096751231E+00
 -9.856459637722E+00 -9.874390143823E+00 -9.890973322309E+00 -9.906293814538E+00
 -9.920435408646E+00 -9.933480565513E+00 -9.945509913424E+00 -9.956601712493E+00
 -9.966831290261E+00 -9.976270450031E+00 -9.984986853907E+00 -9.993043382766E+00
 -1.000049747584E+01 -1.000740045309E+01 -1.001379682424E+01 -1.001972358899E+01
 -1.002520953411E+01 -1.003027453409E+01 -1.003492886370E+01 -1.003917253233E+01