<?xml version="1.0" encoding="UTF-8" ?>
<psml version="1.1" energy_unit="hartree" length_unit="bohr"
 uuid="7f8ed7f0-be6d-11e7-4deb-f2aebbf135fd"
 xmlns="http://esl.cecam.org/PSML/ns/1.1">
<provenance creator="ONCVPSP-3.3.0+psml-3.3.0-73 (scalar-relativistic)"
 date="2017-10-31">
<annotation action="semilocal-pseudopotential-generation"
 action-cont="projectors-generation" />
<input-file name="oncvpsp-input">
<![CDATA[# atsym z nc nv iexc psfile
Po 84 10 5 4 upf
# n l f
1 0 2.0
2 0 2.0
2 1 6.0
3 0 2.0
3 1 6.0
3 2 10.0
4 0 2.0
4 1 6.0
4 2 10.0
4 3 14.0
5 0 2.0
5 1 6.0
5 2 10.0
6 0 2.0
6 1 4.0
# lmax
2
# l rc ep ncon nbas qcut
0 1.4 0.0 4 8 9.0
1 1.5 0.0 4 8 8.4
2 1.4 0.0 4 8 9.0
# lloc lpopt rc5 dvloc0
4 5 1.3 0.0
# l nproj debl
0 2 1.0
1 2 1.0
2 2 2.5
# icmod fcfact rcfact
3 6.0 1.34
# epsh1 epsh2 depsh
-12.0 12.0 0.02
# rlmax drl
6.0 0.01
 0
]]>
</input-file>
</provenance>
<pseudo-atom-spec atomic-label="Po" atomic-number="84" z-pseudo="24"
 flavor="Hamann&apos;s oncvpsp" relativity="scalar" spin-dft="no"
 core-corrections="yes">
<annotation pseudo-energy="-240.972830579" />
<exchange-correlation>
<annotation oncvpsp-xc-code="4" oncvpsp-xc-type="GGA -- Perdew-Burke-Ernzerhof" />
<libxc-info number-of-functionals="2">
<functional name="Perdew, Burke &amp; Ernzerhof (GGA)" type="exchange" id="101" />
<functional name="Perdew, Burke &amp; Ernzerhof (GGA)" type="correlation"
 id="130" />
</libxc-info>
</exchange-correlation>
<valence-configuration total-valence-charge="24">
<shell n="5" l="s" occupation="2" />
<shell n="5" l="p" occupation="6" />
<shell n="5" l="d" occupation="10" />
<shell n="6" l="s" occupation="2" />
<shell n="6" l="p" occupation="4" />
</valence-configuration>
</pseudo-atom-spec>
<grid npts="457">
<annotation type="sampled from oncvpsp log grid"
 recipe="r(i:1..N) = r1*exp(a*(i-1)) + r=0; resampled"
 recipe-cont="r1: scale; a: step" scale="0.595238095238E-05"
 step="0.119285708653E-01" delta="0.500000000000E-02" rmax="44.0605889801" />
<grid-data>
  0.000000000000E+00  5.031300802255E-03  1.004962851020E-02  1.507604528350E-02
  2.031422441398E-02  2.548179300022E-02  3.084027084741E-02  3.601345981203E-02
  4.106298189261E-02  4.626532407434E-02  5.150865635998E-02  5.666623015056E-02
  6.234023300928E-02  6.776914535508E-02  7.279726845657E-02  7.819845251068E-02
  8.400037672722E-02  8.916282012991E-02  9.464253379881E-02  1.004590163345E-01
  1.066329646705E-01  1.118442171143E-01  1.173101483258E-01  1.230432046939E-01
  1.290564408741E-01  1.353635495152E-01  1.419788924385E-01  1.471517127873E-01
  1.525129982658E-01  1.580696153610E-01  1.638286807322E-01  1.697975703246E-01
  1.759839288168E-01  1.823956794117E-01  1.890410339838E-01  1.959285035968E-01
  2.030669094043E-01  2.104653939473E-01  2.155468704188E-01  2.207510340582E-01
  2.260808470245E-01  2.315393429950E-01  2.371296288923E-01  2.428548866523E-01
  2.487183750356E-01  2.547234314824E-01  2.608734740122E-01  2.671720031687E-01
  2.736226040132E-01  2.802289481645E-01  2.869947958890E-01  2.939239982409E-01
  3.010204992545E-01  3.082883381885E-01  3.157316518257E-01  3.233546768274E-01
  3.311617521447E-01  3.391573214885E-01  3.473459358585E-01  3.557322561339E-01
  3.643210557260E-01  3.731172232954E-01  3.821257655346E-01  3.913518100177E-01
  4.008006081188E-01  4.104775380012E-01  4.203881076787E-01  4.254327649708E-01
  4.305379581505E-01  4.357044136483E-01  4.409328666121E-01  4.462240610114E-01
  4.515787497436E-01  4.569976947405E-01  4.624816670774E-01  4.680314470823E-01
  4.736478244473E-01  4.793315983407E-01  4.850835775207E-01  4.909045804510E-01
  4.967954354164E-01  5.027569806414E-01  5.087900644091E-01  5.148955451820E-01
  5.210742917242E-01  5.273271832249E-01  5.336551094236E-01  5.400589707367E-01
  5.465396783855E-01  5.530981545261E-01  5.597353323804E-01  5.664521563690E-01
  5.732495822454E-01  5.801285772324E-01  5.870901201592E-01  5.941352016011E-01
  6.012648240203E-01  6.084800019085E-01  6.157817619314E-01  6.231711430746E-01
  6.306491967915E-01  6.382169871530E-01  6.458755909988E-01  6.536260980908E-01
  6.614696112679E-01  6.694072466031E-01  6.774401335624E-01  6.855694151651E-01
  6.937962481471E-01  7.021218031249E-01  7.105472647624E-01  7.190738319395E-01
  7.277027179228E-01  7.364351505379E-01  7.452723723443E-01  7.542156408125E-01
  7.632662285022E-01  7.724254232442E-01  7.816945283232E-01  7.910748626630E-01
  8.005677610150E-01  8.101745741472E-01  8.198966690369E-01  8.297354290654E-01
  8.396922542142E-01  8.497685612647E-01  8.599657839999E-01  8.702853734079E-01
  8.807287978888E-01  8.912975434635E-01  9.019931139850E-01  9.128170313529E-01
  9.237708357291E-01  9.348560857578E-01  9.460743587869E-01  9.574272510924E-01
  9.689163781055E-01  9.805433746428E-01  9.923098951385E-01  1.004217613880E+00
  1.016268225247E+00  1.028463443950E+00  1.040805005277E+00  1.053294665340E+00
  1.065934201324E+00  1.078725411740E+00  1.091670116681E+00  1.104770158081E+00
  1.118027399978E+00  1.131443728778E+00  1.145021053523E+00  1.158761306166E+00
  1.172666441840E+00  1.186738439142E+00  1.200979300412E+00  1.215391052016E+00
  1.229975744641E+00  1.244735453576E+00  1.259672279019E+00  1.274788346367E+00
  1.290085806524E+00  1.305566836202E+00  1.321233638237E+00  1.337088441895E+00
  1.353133503198E+00  1.369371105237E+00  1.385803558499E+00  1.402433201201E+00
  1.419262399616E+00  1.436293548411E+00  1.453529070992E+00  1.470971419844E+00
  1.488623076882E+00  1.506486553805E+00  1.524564392450E+00  1.542859165160E+00
  1.561373475142E+00  1.580109956843E+00  1.599071276326E+00  1.618260131641E+00
  1.637679253221E+00  1.657331404260E+00  1.677219381111E+00  1.697346013684E+00
  1.717714165848E+00  1.738326735839E+00  1.759186656669E+00  1.780296896549E+00
  1.801660459307E+00  1.823280384819E+00  1.845159749437E+00  1.867301666430E+00
  1.889709286427E+00  1.912385797864E+00  1.935334427439E+00  1.958558440568E+00
  1.982061141855E+00  2.005845875557E+00  2.029916026064E+00  2.054275018377E+00
  2.078926318597E+00  2.103873434420E+00  2.129119915633E+00  2.154669354621E+00
  2.180525386876E+00  2.206691691519E+00  2.233171991817E+00  2.259970055719E+00
  2.287089696387E+00  2.314534772744E+00  2.342309190017E+00  2.370416900297E+00
  2.398861903101E+00  2.427648245938E+00  2.456780024889E+00  2.486261385188E+00
  2.516096521810E+00  2.546289680072E+00  2.576845156233E+00  2.607767298108E+00
  2.639060505685E+00  2.670729231753E+00  2.702777982534E+00  2.735211318325E+00
  2.768033854144E+00  2.801250260394E+00  2.834865263519E+00  2.868883646681E+00
  2.903310250441E+00  2.938149973447E+00  2.973407773128E+00  3.009088666406E+00
  3.045197730402E+00  3.081740103167E+00  3.118720984405E+00  3.156145636218E+00
  3.194019383853E+00  3.232347616459E+00  3.271135787856E+00  3.310389417311E+00
  3.350114090318E+00  3.390315459402E+00  3.430999244915E+00  3.472171235854E+00
  3.513837290684E+00  3.556003338173E+00  3.598675378231E+00  3.641859482769E+00
  3.685561796563E+00  3.729788538121E+00  3.774546000579E+00  3.819840552586E+00
  3.865678639217E+00  3.912066782887E+00  3.959011584282E+00  4.006519723293E+00
  4.054597959973E+00  4.103253135493E+00  4.152492173119E+00  4.202322079196E+00
  4.252749944146E+00  4.303782943476E+00  4.355428338798E+00  4.407693478863E+00
  4.460585800610E+00  4.514112830217E+00  4.568282184180E+00  4.623101570390E+00
  4.678578789234E+00  4.734721734705E+00  4.791538395522E+00  4.849036856268E+00
  4.907225298543E+00  4.966112002126E+00  5.025705346151E+00  5.086013810305E+00
  5.147045976029E+00  5.208810527741E+00  5.271316254074E+00  5.334572049123E+00
  5.398586913712E+00  5.463369956677E+00  5.528930396157E+00  5.595277560911E+00
  5.662420891642E+00  5.730369942342E+00  5.799134381650E+00  5.868723994229E+00
  5.939148682160E+00  6.010418466346E+00  6.082543487942E+00  6.155534009798E+00
  6.229400417915E+00  6.304153222930E+00  6.379803061605E+00  6.456360698345E+00
  6.533837026725E+00  6.612243071045E+00  6.691589987898E+00  6.771889067753E+00
  6.853151736566E+00  6.935389557405E+00  7.018614232093E+00  7.102837602878E+00
  7.188071654113E+00  7.274328513962E+00  7.361620456130E+00  7.449959901603E+00
  7.539359420423E+00  7.629831733468E+00  7.721389714269E+00  7.814046390841E+00
  7.907814947531E+00  8.002708726901E+00  8.098741231624E+00  8.195926126403E+00
  8.294277239920E+00  8.393808566799E+00  8.494534269601E+00  8.596468680836E+00
  8.699626305006E+00  8.804021820666E+00  8.909670082514E+00  9.016586123504E+00
  9.124785156986E+00  9.234282578870E+00  9.345093969817E+00  9.457235097454E+00
  9.570721918624E+00  9.685570581647E+00  9.801797428627E+00  9.919418997771E+00
  1.003845202574E+01  1.015891345005E+01  1.028082041145E+01  1.040419025639E+01
  1.052904053947E+01  1.065538902594E+01  1.078325369425E+01  1.091265273858E+01
  1.104360457145E+01  1.117612782630E+01  1.131024136022E+01  1.144596425654E+01
  1.158331582762E+01  1.172231561755E+01  1.186298340496E+01  1.200533920582E+01
  1.214940327629E+01  1.229519611561E+01  1.244273846900E+01  1.259205133062E+01
  1.274315594659E+01  1.289607381795E+01  1.305082670376E+01  1.320743662421E+01
  1.336592586370E+01  1.352631697407E+01  1.368863277775E+01  1.385289637109E+01
  1.401913112754E+01  1.418736070107E+01  1.435760902948E+01  1.452990033784E+01
  1.470425914189E+01  1.488071025159E+01  1.505927877461E+01  1.523999011991E+01
  1.542287000135E+01  1.560794444136E+01  1.579523977466E+01  1.598478265196E+01
  1.617660004378E+01  1.637071924430E+01  1.656716787524E+01  1.676597388974E+01
  1.696716557642E+01  1.717077156333E+01  1.737682082209E+01  1.758534267196E+01
  1.779636678402E+01  1.800992318543E+01  1.822604226365E+01  1.844475477082E+01
  1.866609182807E+01  1.889008493001E+01  1.911676594917E+01  1.934616714056E+01
  1.957832114624E+01  1.981326100000E+01  2.005102013200E+01  2.029163237358E+01
  2.053513196206E+01  2.078155354561E+01  2.103093218816E+01  2.128330337441E+01
  2.153870301491E+01  2.179716745109E+01  2.205873346050E+01  2.232343826202E+01
  2.259131952117E+01  2.286241535542E+01  2.313676433969E+01  2.341440551176E+01
  2.369537837791E+01  2.397972291844E+01  2.426747959346E+01  2.455868934858E+01
  2.485339362077E+01  2.515163434422E+01  2.545345395635E+01  2.575889540382E+01
  2.606800214867E+01  2.638081817445E+01  2.669738799255E+01  2.701775664846E+01
  2.734196972824E+01  2.767007336498E+01  2.800211424536E+01  2.833813961630E+01
  2.867819729170E+01  2.902233565920E+01  2.937060368711E+01  2.972305093135E+01
  3.007972754253E+01  3.044068427304E+01  3.080597248431E+01  3.117564415413E+01
  3.154975188398E+01  3.192834890658E+01  3.231148909346E+01  3.269922696258E+01
  3.309161768614E+01  3.348871709837E+01  3.389058170355E+01  3.429726868399E+01
  3.470883590820E+01  3.512534193910E+01  3.554684604237E+01  3.597340819488E+01
  3.640508909321E+01  3.684195016233E+01  3.728405356428E+01  3.773146220705E+01
  3.818423975354E+01  3.864245063058E+01  3.910616003815E+01  3.957543395860E+01
  4.005033916611E+01  4.053094323610E+01  4.101731455493E+01  4.150952232959E+01
  4.200763659755E+01  4.251172823672E+01  4.302186897556E+01  4.353813140327E+01
  4.406058898011E+01
</grid-data>
</grid>
<valence-charge total-charge="24" is-unscreening-charge="yes"
 rescaled-to-z-pseudo="no">
<radfunc>
<data npts="457">
  7.739815010072E+00  7.743694187655E+00  7.755290358136E+00  7.774636861777E+00
  7.803024830198E+00  7.839246813521E+00  7.885411232606E+00  7.938273356567E+00
  7.997710846479E+00  8.067023711634E+00  8.145149980888E+00  8.230065934829E+00
  8.332688208658E+00  8.439861418690E+00  8.546918262564E+00  8.670223155656E+00
  8.812199543140E+00  8.946763151038E+00  9.098017990325E+00  9.267979666446E+00
  9.458891288038E+00  9.628369923941E+00  9.814244742191E+00  1.001803187632E+01
  1.024137134334E+01  1.048603313521E+01  1.075392247375E+01  1.097130711170E+01
  1.120381903907E+01  1.145241780744E+01  1.171810732501E+01  1.200193468451E+01
  1.230498816604E+01  1.262839423647E+01  1.297331333696E+01  1.334093421691E+01
  1.373246653499E+01  1.414913140727E+01  1.444147377502E+01  1.474588766177E+01
  1.506272651421E+01  1.539233596538E+01  1.573505088191E+01  1.609119202831E+01
  1.646106231314E+01  1.684494258043E+01  1.724308690837E+01  1.765571737646E+01
  1.808301826202E+01  1.852512962731E+01  1.898214025944E+01  1.945407992803E+01
  1.994091092845E+01  2.044251888399E+01  2.095870278692E+01  2.148916426752E+01
  2.203349609171E+01  2.259116990204E+01  2.316152323482E+01  2.374374586730E+01
  2.433686557401E+01  2.493973340171E+01  2.555100860665E+01  2.616914343786E+01
  2.679236799520E+01  2.741867544115E+01  2.804580790112E+01  2.835890604994E+01
  2.867124344708E+01  2.898246170912E+01  2.929218462371E+01  2.960001791302E+01
  2.990554904376E+01  3.020834708899E+01  3.050796264729E+01  3.080392782506E+01
  3.109575628810E+01  3.138294338859E+01  3.166496637405E+01  3.194128468464E+01
  3.221134034585E+01  3.247455846297E+01  3.273034782454E+01  3.297810162132E+01
  3.321719828765E+01  3.344700247183E+01  3.366686614171E+01  3.387612983181E+01
  3.407412403753E+01  3.426017076167E+01  3.443358521795E+01  3.459367769542E+01
  3.473975558693E+01  3.487112558378E+01  3.498709603768E+01  3.508697949002E+01
  3.517009536685E+01  3.523577283682E+01  3.528335382736E+01  3.531219619296E+01
  3.532167702722E+01  3.531119610836E+01  3.528017946603E+01  3.522808305432E+01
  3.515439651436E+01  3.505864700662E+01  3.494040309126E+01  3.479927863170E+01
  3.463493669459E+01  3.444709341654E+01  3.423552180568E+01  3.400005544390E+01
  3.374059205334E+01  3.345709688892E+01  3.314960591717E+01  3.281822874005E+01
  3.246315122185E+01  3.208463777664E+01  3.168303327392E+01  3.125876452059E+01
  3.081234127881E+01  3.034435678121E+01  2.985548770726E+01  2.934649358854E+01
  2.881821561424E+01  2.827157481361E+01  2.770756959737E+01  2.712727264689E+01
  2.653182714694E+01  2.592244236547E+01  2.530038859253E+01  2.466699145895E+01
  2.402362566471E+01  2.337170815600E+01  2.271269079948E+01  2.204805261116E+01
  2.137929160603E+01  2.070791634268E+01  2.003543724440E+01  1.936335778425E+01
  1.869316562691E+01  1.802632382311E+01  1.736426215460E+01  1.670836872769E+01
  1.605998191145E+01  1.542038271307E+01  1.479078767716E+01  1.417234238851E+01
  1.356611564824E+01  1.297309438287E+01  1.239417933343E+01  1.183018155886E+01
  1.128181977406E+01  1.074971852882E+01  1.023440722019E+01  9.736319917439E+00
  9.255795966245E+00  8.793081328231E+00  8.348330602511E+00  7.921609669032E+00
  7.512898888696E+00  7.122096792915E+00  6.749024195520E+00  6.393428663235E+00
  6.054989288216E+00  5.733321714096E+00  5.427983372059E+00  5.138478891194E+00
  4.864267051963E+00  4.604773462854E+00  4.359406182313E+00  4.127561813271E+00
  3.908629091574E+00  3.701993620364E+00  3.507042721505E+00  3.323172286104E+00
  3.149794097195E+00  2.986337298877E+00  2.832249836177E+00  2.686999428869E+00
  2.550074377579E+00  2.420984134414E+00  2.299259675173E+00  2.184453690278E+00
  2.076140613083E+00  1.973916503375E+00  1.877398803061E+00  1.786225980152E+00
  1.700057076212E+00  1.618571171496E+00  1.541466781007E+00  1.468461193734E+00
  1.399289766373E+00  1.333705181887E+00  1.271476682330E+00  1.212389284508E+00
  1.156242986153E+00  1.102851969509E+00  1.052043808437E+00  1.003658684401E+00
  9.575486160347E-01  9.135767062857E-01  8.716164105699E-01  8.315508287654E-01
  7.932720233616E-01  7.566803655911E-01  7.216839109231E-01  6.881978049002E-01
  6.561437199299E-01  6.254493233238E-01  5.960477765848E-01  5.678772656945E-01
  5.408805619338E-01  5.150046125804E-01  4.902001606750E-01  4.664213929107E-01
  4.436256146009E-01  4.217729505939E-01  4.008260709582E-01  3.807499401105E-01
  3.615115883021E-01  3.430799040037E-01  3.254254459923E-01  3.085202738569E-01
  2.923377956648E-01  2.768526315662E-01  2.620404921425E-01  2.478780703465E-01
  2.343429459255E-01  2.214135012640E-01  2.090688476370E-01  1.972887609114E-01
  1.860536257919E-01  1.753443877574E-01  1.651425118917E-01  1.554299478642E-01
  1.461891003701E-01  1.374028043927E-01  1.290543047008E-01  1.211272390440E-01
  1.136056245546E-01  1.064738469138E-01  9.971665187817E-02  9.331913880392E-02
  8.726675586284E-02  8.154529662637E-02  7.614089779857E-02  7.104003785427E-02
  6.622953638644E-02  6.169655398729E-02  5.742859250848E-02  5.341349556399E-02
  4.963944915551E-02  4.609498231360E-02  4.276896766018E-02  3.965062180798E-02
  3.672950552199E-02  3.399552357623E-02  3.143892424653E-02  2.905029838802E-02
  2.682057805251E-02  2.474103460884E-02  2.280327633649E-02  2.099924547012E-02
  1.932121468091E-02  1.776178298799E-02  1.631387110130E-02  1.497071620460E-02
  1.372586619513E-02  1.257317340279E-02  1.150678781839E-02  1.052114986599E-02
  9.610982759366E-03  8.771284486138E-03  7.997319466890E-03  7.284609938136E-03
  6.628927109663E-03  6.026282147076E-03  5.472917030047E-03  4.965295335661E-03
  4.500092994554E-03  4.074189065208E-03  3.684656569004E-03  3.328753425514E-03
  3.003913524001E-03  2.707737963480E-03  2.437986489864E-03  2.192569154853E-03
  1.969538217379E-03  1.767080304627E-03  1.583508845985E-03  1.417256789804E-03
  1.266869609590E-03  1.130998603237E-03  1.008394486208E-03  8.979012771745E-04
  7.984504725177E-04  7.090555043664E-04  6.288064753920E-04  5.568651624626E-04
  4.924602804150E-04  4.348829966311E-04  3.834826867639E-04  3.376629218170E-04
  2.968776768094E-04  2.606277514150E-04  2.284573932267E-04  1.999511146198E-04
  1.747306945630E-04  1.524523571110E-04  1.328041187040E-04  1.155032967743E-04
  1.002941725107E-04  8.694580094937E-05  7.524996184490E-05  6.501924502432E-05
  5.608526414019E-05  4.829699292387E-05  4.151921819701E-05  3.563110403548E-05
  3.052486159954E-05  2.610451925274E-05  2.228478769426E-05  1.899001492970E-05
  1.615322600754E-05  1.371524255506E-05  1.162387726144E-05  9.833198578096E-06
  8.302861038181E-06  6.997496739085E-06  5.886163683181E-06  4.941846832830E-06
  4.141007904497E-06  3.463180102730E-06  2.890604176293E-06  2.407902364411E-06
  2.001786989396E-06  1.660800641269E-06  1.375085088925E-06  1.136176239533E-06
  9.368226518137E-07  7.708252885465E-07  6.328963680308E-07  5.185353423981E-07
  4.239201919237E-07  3.458123782421E-07  2.814739451913E-07  2.285953936006E-07
  1.852330855189E-07  1.497550540923E-07  1.207942075814E-07  9.720801998379E-08
  7.804389659077E-08  6.250949083220E-08  4.994732924761E-08  3.981317473004E-08
  3.165762469321E-08  2.511050091789E-08  1.986764195104E-08  1.567975747888E-08
  1.234304748827E-08  9.691327678114E-09  7.589436882512E-09  5.927732603077E-09
  4.617507481483E-09  3.587183032023E-09  2.779157505789E-09  2.147202696175E-09
  1.654320088328E-09  1.270980269394E-09  9.736811887590E-10  7.437709057719E-10
  5.664890839478E-10  4.301888635387E-10  3.257070285660E-10  2.458557229766E-10
  1.850134907553E-10  1.387972293384E-10  1.037998539576E-10  7.738115991724E-11
  5.750161662110E-11  4.259069791543E-11  3.144290565327E-11  2.313592711874E-11
  1.696642490518E-11  1.239982671809E-11  9.031193678969E-12  6.554825649554E-12
  4.740733398185E-12  3.416489080237E-12  2.453274446272E-12  1.755193760999E-12
  1.251116722109E-12  8.884749279713E-13  6.285612740747E-13  4.429813293007E-13
  3.109843936150E-13  2.174637642424E-13  1.514641490052E-13  1.050719254701E-13
  7.259328015561E-14  4.994796188464E-14  3.422387760743E-14  2.335118649527E-14
  1.586481172389E-14  1.073210194333E-14  7.228296257359E-15  4.846916091342E-15
  3.235566245079E-15  2.150140702112E-15  1.422301019890E-15  9.364836452441E-16
  6.137176220988E-16  4.002875669576E-16  2.598279161949E-16  1.678357637678E-16
  1.078804321545E-16  6.899767903097E-17  4.390700016949E-17  2.779803345502E-17
  1.750848248237E-17  1.097008598621E-17  6.837091580612E-18  4.238428817073E-18
  2.613258769906E-18  1.602416887297E-18  9.771368069169E-19  5.925060774620E-19
  3.572384851371E-19  2.141517565333E-19  1.276299194995E-19  7.561704124728E-20
  4.453395747535E-20  2.606960097738E-20  1.516751478604E-20  0.000000000000E+00
  0.000000000000E+00  0.000000000000E+00  0.000000000000E+00  0.000000000000E+00
  0.000000000000E+00  0.000000000000E+00  0.000000000000E+00  0.000000000000E+00
  0.000000000000E+00  0.000000000000E+00  0.000000000000E+00  0.000000000000E+00
  0.000000000000E+00  0.000000000000E+00  0.000000000000E+00  0.000000000000E+00
  0.000000000000E+00  0.000000000000E+00  0.000000000000E+00  0.000000000000E+00
  0.000000000000E+00
</data>
</radfunc>
</valence-charge>
<pseudocore-charge matching-radius="0.677440133562"
 number-of-continuous-derivatives="4">
<annotation model-charge-form="Teter function with specified parameters" />
<radfunc>
<data npts="290">
  2.213959519781E+02  2.213744650837E+02  2.213102375176E+02  2.212030971618E+02
  2.210459168729E+02  2.208454148504E+02  2.205899654232E+02  2.202975745047E+02
  2.199689661651E+02  2.195859626892E+02  2.191545179374E+02  2.186858866850E+02
  2.181199636772E+02  2.175294355333E+02  2.169400441799E+02  2.162618069083E+02
  2.154816599202E+02  2.147430168104E+02  2.139136341012E+02  2.129827688364E+02
  2.119385146696E+02  2.110126685005E+02  2.099984918372E+02  2.088880376346E+02
  2.076727445318E+02  2.063434111256E+02  2.048901744350E+02  2.037126204835E+02
  2.024547564668E+02  2.011116657818E+02  1.996782170868E+02  1.981490690857E+02
  1.965186783179E+02  1.947813104639E+02  1.929310557370E+02  1.909618489864E+02
  1.888674952009E+02  1.866417011581E+02  1.850816800041E+02  1.834585300237E+02
  1.817703677450E+02  1.800153218297E+02  1.781915418037E+02  1.762972077164E+02
  1.743305407809E+02  1.722898150484E+02  1.701733701686E+02  1.679796252835E+02
  1.657070940961E+02  1.633544011533E+02  1.609202993698E+02  1.584036888131E+02
  1.558036367583E+02  1.531193990027E+02  1.503504424202E+02  1.474964687088E+02
  1.445574392664E+02  1.415336011006E+02  1.384255136499E+02  1.352340763595E+02
  1.319605568155E+02  1.286066192021E+02  1.251743527984E+02  1.216663001818E+02
  1.180854847538E+02  1.144354371433E+02  1.107202199887E+02  1.088395934938E+02
  1.069444505346E+02  1.050354581725E+02  1.031133204199E+02  1.011787786569E+02
  9.923261197430E+01  9.727563744017E+01  9.530871027981E+01  9.333272396499E+01
  9.134861020458E+01  8.935733882981E+01  8.735991756732E+01  8.535739169276E+01
  8.335084355803E+01  8.134139198493E+01  7.933019151838E+01  7.731843153230E+01
  7.530733518135E+01  7.329815819223E+01  7.129218748818E+01  6.929073964092E+01
  6.729515914470E+01  6.530681650741E+01  6.332710615458E+01  6.135744414256E+01
  5.939926567800E+01  5.745402244165E+01  5.552317971545E+01  5.360821331267E+01
  5.171060631261E+01  4.983184560177E+01  4.797341822569E+01  4.613680755629E+01
  4.432348928157E+01  4.253492722615E+01  4.077256901258E+01  3.903784157552E+01
  3.733214654250E+01  3.565685549721E+01  3.401330514297E+01  3.240279238642E+01
  3.082656936325E+01  2.928583843010E+01  2.778174714880E+01  2.631538329092E+01
  2.488776989300E+01  2.349986039427E+01  2.215253389074E+01  2.084659054101E+01
  1.958274716053E+01  1.836163304237E+01  1.718378604340E+01  1.604964897538E+01
  1.495956634088E+01  1.391378145371E+01  1.291243398325E+01  1.195555796092E+01
  1.104308028579E+01  1.017481976421E+01  9.350486716020E+00  8.569683176791E+00
  7.831903721865E+00  7.136536933848E+00  6.482867530325E+00  5.870079163223E+00
  5.297257895283E+00  4.763396352617E+00  4.267398545374E+00  3.808085341121E+00
  3.384200567798E+00  2.994417715057E+00  2.637347194576E+00  2.311544111674E+00
  2.015516492304E+00  1.747733901493E+00  1.506636381637E+00  1.290643631857E+00
  1.098164343198E+00  9.276055987389E-01  7.773822431385E-01  6.459261226405E-01
  5.316950945225E-01  4.331817043535E-01  3.489214304649E-01  2.775003977976E-01
  2.175624678593E-01  1.678156179454E-01  1.270375310560E-01  9.408032803822E-02
  6.787438530965E-02  4.743119494111E-02  3.184523869950E-02  2.029486363637E-02
  1.204216365699E-02  6.431888875413E-03  2.889422067894E-03  9.178787572167E-04
  9.440394647752E-05  6.575381077397E-05  5.432642865430E-04  1.297320024103E-03
  2.151446174236E-03  2.976151599225E-03  3.682655035022E-03  4.216625271235E-03
  4.552062447013E-03  4.685440085003E-03  4.630216627524E-03  4.411811253419E-03
  4.063122025258E-03  3.620645453817E-03  3.121235992138E-03  2.599522501711E-03
  2.085977155173E-03  1.605611379052E-03  1.177254125658E-03  8.133507880332E-04
  5.202071512326E-04  2.985925035527E-04  1.446098524124E-04  5.073935122640E-05
  6.963581481645E-06  1.890055793674E-06  2.379679121088E-05  6.154040974240E-05
  1.052821295406E-04  1.470042450446E-04  1.808071984042E-04  2.029940356820E-04
  2.119638876182E-04  2.079482080375E-04  1.926321287595E-04  1.687079864522E-04
  1.394086782192E-04  1.080651597269E-04  7.772557604720E-05  5.086395608050E-05
  2.919507441722E-05  1.360009887615E-05  4.156148427724E-06  2.529685267223E-07
  7.724986166783E-07  4.302800717481E-06  9.356940616510E-06  1.456989078834E-05
  1.885191174559E-05  2.148439651133E-05  2.215282473547E-05  2.092014513407E-05
  1.815148644144E-05  1.440665145486E-05  1.031972941593E-05  6.485102434828E-06
  3.366275503861E-06  1.238880919839E-06  1.727711906082E-07  0.000000000000E+00
  0.000000000000E+00  0.000000000000E+00  0.000000000000E+00  0.000000000000E+00
  0.000000000000E+00  0.000000000000E+00  0.000000000000E+00  0.000000000000E+00
  0.000000000000E+00  0.000000000000E+00  0.000000000000E+00  0.000000000000E+00
  0.000000000000E+00  0.000000000000E+00  0.000000000000E+00  0.000000000000E+00
  0.000000000000E+00  0.000000000000E+00  0.000000000000E+00  0.000000000000E+00
  0.000000000000E+00  0.000000000000E+00  0.000000000000E+00  0.000000000000E+00
  0.000000000000E+00  0.000000000000E+00  0.000000000000E+00  0.000000000000E+00
  0.000000000000E+00  0.000000000000E+00  0.000000000000E+00  0.000000000000E+00
  0.000000000000E+00  0.000000000000E+00  0.000000000000E+00  0.000000000000E+00
  0.000000000000E+00  0.000000000000E+00  0.000000000000E+00  0.000000000000E+00
  0.000000000000E+00  0.000000000000E+00  0.000000000000E+00  0.000000000000E+00
  0.000000000000E+00  0.000000000000E+00  0.000000000000E+00  0.000000000000E+00
  0.000000000000E+00  0.000000000000E+00  0.000000000000E+00  0.000000000000E+00
  0.000000000000E+00  0.000000000000E+00  0.000000000000E+00  0.000000000000E+00
  0.000000000000E+00  0.000000000000E+00  0.000000000000E+00  0.000000000000E+00
  0.000000000000E+00  0.000000000000E+00  0.000000000000E+00  0.000000000000E+00
  0.000000000000E+00  0.000000000000E+00
</data>
</radfunc>
</pseudocore-charge>
<semilocal-potentials set="scalar_relativistic">
<slps n="5" l="s" rc="1.40243320120" eref="-6.31752812499">
<radfunc>
<data npts="290">
 -2.338916295462E+01 -2.339041266922E+01 -2.339414750532E+01 -2.340037527943E+01
 -2.340950621693E+01 -2.342114428337E+01 -2.343595629787E+01 -2.345288909865E+01
 -2.347189228253E+01 -2.349400505033E+01 -2.351886817161E+01 -2.354581863465E+01
 -2.357828716072E+01 -2.361207761559E+01 -2.364571182933E+01 -2.368430362643E+01
 -2.372854557364E+01 -2.377028775905E+01 -2.381698891194E+01 -2.386919214918E+01
 -2.392748794434E+01 -2.397893877697E+01 -2.403504580124E+01 -2.409617735521E+01
 -2.416272004193E+01 -2.423507723912E+01 -2.431366693500E+01 -2.437695740030E+01
 -2.444417947207E+01 -2.451551878643E+01 -2.459116092294E+01 -2.467128978860E+01
 -2.475608573446E+01 -2.484572337981E+01 -2.494036911907E+01 -2.504017828694E+01
 -2.514529195819E+01 -2.525583336067E+01 -2.533259413241E+01 -2.541183658222E+01
 -2.549357865581E+01 -2.557783182478E+01 -2.566460038067E+01 -2.575388069052E+01
 -2.584566041418E+01 -2.593991768412E+01 -2.603662024874E+01 -2.613572458072E+01
 -2.623717495198E+01 -2.634090247774E+01 -2.644682413206E+01 -2.655484173811E+01
 -2.666484093670E+01 -2.677669013688E+01 -2.689023945338E+01 -2.700531963549E+01
 -2.712174099306E+01 -2.723929232530E+01 -2.735773985876E+01 -2.747682620141E+01
 -2.759626931987E+01 -2.771576154779E+01 -2.783496863339E+01 -2.795352883516E+01
 -2.807105207477E+01 -2.818711915728E+01 -2.830128106907E+01 -2.835749896274E+01
 -2.841305836474E+01 -2.846789450537E+01 -2.852194065506E+01 -2.857512811481E+01
 -2.862738620870E+01 -2.867864227872E+01 -2.872882168179E+01 -2.877784778945E+01
 -2.882564198998E+01 -2.887212369341E+01 -2.891721033929E+01 -2.896081740760E+01
 -2.900285843277E+01 -2.904324502111E+01 -2.908188687170E+01 -2.911869180094E+01
 -2.915356577105E+01 -2.918641292242E+01 -2.921713561033E+01 -2.924563444597E+01
 -2.927180834202E+01 -2.929555456305E+01 -2.931676878080E+01 -2.933534513469E+01
 -2.935117629754E+01 -2.936415354693E+01 -2.937416684216E+01 -2.938110490718E+01
 -2.938485531950E+01 -2.938530460541E+01 -2.938233834147E+01 -2.937584126268E+01
 -2.936569737723E+01 -2.935179008802E+01 -2.933400232123E+01 -2.931221666173E+01
 -2.928631549574E+01 -2.925618116050E+01 -2.922169610129E+01 -2.918274303558E+01
 -2.913920512456E+01 -2.909096615187E+01 -2.903791070969E+01 -2.897992439215E+01
 -2.891689399607E+01 -2.884870772908E+01 -2.877525542522E+01 -2.869642876806E+01
 -2.861212152157E+01 -2.852222976903E+01 -2.842665216013E+01 -2.832529016708E+01
 -2.821804834994E+01 -2.810483463241E+01 -2.798556058887E+01 -2.786014174413E+01
 -2.772849788753E+01 -2.759055340356E+01 -2.744623762137E+01 -2.729548518641E+01
 -2.713823645784E+01 -2.697443793606E+01 -2.680404272580E+01 -2.662701104087E+01
 -2.644331075790E+01 -2.625291802788E+01 -2.605581795555E+01 -2.585200535843E+01
 -2.564148561966E+01 -2.542427565067E+01 -2.520040498279E+01 -2.496991701004E+01
 -2.473287040895E+01 -2.448934076568E+01 -2.423942244587E+01 -2.398323074818E+01
 -2.372090438944E+01 -2.345260837686E+01 -2.317853733121E+01 -2.289891933466E+01