<?xml version="1.0" encoding="UTF-8" ?>
<psml version="1.1" energy_unit="hartree" length_unit="bohr"
 uuid="59dc4910-be41-11e7-46dd-fff9f7e6bff4"
 xmlns="http://esl.cecam.org/PSML/ns/1.1">
<provenance creator="ONCVPSP-3.3.0+psml-3.3.0-73 (scalar-relativistic)"
 date="2017-10-31">
<annotation action="semilocal-pseudopotential-generation"
 action-cont="projectors-generation" />
<input-file name="oncvpsp-input">
<![CDATA[# atsym z nc nv iexc psfile
Na 11 1 3 4 upf
# n l f
1 0 2.0
2 0 2.0
2 1 6.0
3 0 1.0
# lmax
1
# l rc ep ncon nbas qcut
0 1.2 0.0 4 7 9.0
1 1.55 0.0 4 7 9.0
# lloc lpopt rc5 dvloc0
4 5 1.2 0.0
# l nproj debl
0 2 1.0
1 2 3.0
# icmod fcfact
0 0.04
# epsh1 epsh2 depsh
-12.0 12.0 0.02
# rlmax drl
4.0 0.01
 0
]]>
</input-file>
</provenance>
<pseudo-atom-spec atomic-label="Na" atomic-number="11" z-pseudo="9"
 flavor="Hamann&apos;s oncvpsp" relativity="scalar" spin-dft="no"
 core-corrections="no">
<annotation pseudo-energy="-45.6662651638" />
<exchange-correlation>
<annotation oncvpsp-xc-code="4" oncvpsp-xc-type="GGA -- Perdew-Burke-Ernzerhof" />
<libxc-info number-of-functionals="2">
<functional name="Perdew, Burke &amp; Ernzerhof (GGA)" type="exchange" id="101" />
<functional name="Perdew, Burke &amp; Ernzerhof (GGA)" type="correlation"
 id="130" />
</libxc-info>
</exchange-correlation>
<valence-configuration total-valence-charge="9">
<shell n="2" l="s" occupation="2" />
<shell n="2" l="p" occupation="6" />
<shell n="3" l="s" occupation="1" />
</valence-configuration>
</pseudo-atom-spec>
<grid npts="457">
<annotation type="sampled from oncvpsp log grid"
 recipe="r(i:1..N) = r1*exp(a*(i-1)) + r=0; resampled"
 recipe-cont="r1: scale; a: step" scale="0.454545454545E-04"
 step="0.119285708653E-01" delta="0.500000000000E-02" rmax="44.2842989144" />
<grid-data>
  0.000000000000E+00  5.056846352100E-03  1.010065374127E-02  1.515259126661E-02
  2.017526317734E-02  2.530748255671E-02  3.062930526546E-02  3.576710657652E-02
  4.078208695772E-02  4.594884206075E-02  5.115630687128E-02  5.627859982527E-02
  6.191378916899E-02  6.730556456298E-02  7.316688385485E-02  7.859549147632E-02
  8.442687394831E-02  8.961552875446E-02  9.512306471111E-02  1.009690794195E-01
  1.071743748984E-01  1.124120865651E-01  1.179057700863E-01  1.236679350454E-01
  1.297117023806E-01  1.360508342627E-01  1.426997654326E-01  1.478988498720E-01
  1.532873563398E-01  1.588721861865E-01  1.646604922048E-01  1.706596877901E-01
  1.768774564356E-01  1.833217615728E-01  1.900008567704E-01  1.969232963057E-01
  2.040979461202E-01  2.115339951745E-01  2.166412719540E-01  2.218718588240E-01
  2.272287329835E-01  2.327149435126E-01  2.383336131088E-01  2.440879398637E-01
  2.499811990838E-01  2.560167451544E-01  2.621980134495E-01  2.685285222862E-01
  2.750118749283E-01  2.816517616365E-01  2.884519617695E-01  2.954163459344E-01
  3.025488781907E-01  3.098536183057E-01  3.173347240661E-01  3.249964536439E-01
  3.328431680207E-01  3.408793334694E-01  3.491095240967E-01  3.575384244465E-01
  3.661708321663E-01  3.750116607381E-01  3.840659422750E-01  3.933388303853E-01
  4.028356031061E-01  4.125616659075E-01  4.225225547692E-01  4.275928254264E-01
  4.327239393315E-01  4.379166266035E-01  4.431716261228E-01  4.484896856362E-01
  4.538715618639E-01  4.593180206062E-01  4.648298368535E-01  4.704077948957E-01
  4.760526884345E-01  4.817653206957E-01  4.875465045441E-01  4.933970625986E-01
  4.993178273498E-01  5.053096412780E-01  5.113733569733E-01  5.175098372570E-01
  5.237199553041E-01  5.300045947677E-01  5.363646499049E-01  5.428010257038E-01
  5.493146380122E-01  5.559064136684E-01  5.625772906324E-01  5.693282181200E-01
  5.761601567374E-01  5.830740786183E-01  5.900709675617E-01  5.971518191724E-01
  6.043176410025E-01  6.115694526945E-01  6.189082861269E-01  6.263351855604E-01
  6.338512077871E-01  6.414574222806E-01  6.491549113479E-01  6.569447702841E-01
  6.648281075275E-01  6.728060448178E-01  6.808797173557E-01  6.890502739639E-01
  6.973188772515E-01  7.056867037785E-01  7.141549442238E-01  7.227248035545E-01
  7.313975011972E-01  7.401742712116E-01  7.490563624661E-01  7.580450388157E-01
  7.671415792815E-01  7.763472782329E-01  7.856634455716E-01  7.950914069185E-01
  8.046325038015E-01  8.142880938471E-01  8.240595509733E-01  8.339482655850E-01
  8.439556447720E-01  8.540831125093E-01  8.643321098594E-01  8.747040951777E-01
  8.852005443198E-01  8.958229508517E-01  9.065728262619E-01  9.174517001770E-01
  9.284611205792E-01  9.396026540261E-01  9.508778858744E-01  9.622884205049E-01
  9.738358815510E-01  9.855219121296E-01  9.973481750751E-01  1.009316353176E+00
  1.021428149414E+00  1.033685287207E+00  1.046089510654E+00  1.058642584781E+00
  1.071346295799E+00  1.084202451348E+00  1.097212880765E+00  1.110379435334E+00
  1.123703988558E+00  1.137188436420E+00  1.150834697658E+00  1.164644714029E+00
  1.178620450598E+00  1.192763896005E+00  1.207077062757E+00  1.221561987510E+00
  1.236220731360E+00  1.251055380137E+00  1.266068044698E+00  1.281260861235E+00
  1.296635991569E+00  1.312195623468E+00  1.327941970950E+00  1.343877274601E+00
  1.360003801896E+00  1.376323847519E+00  1.392839733689E+00  1.409553810494E+00
  1.426468456220E+00  1.443586077694E+00  1.460909110627E+00  1.478440019954E+00
  1.496181300194E+00  1.514135475796E+00  1.532305101505E+00  1.550692762723E+00
  1.569301075876E+00  1.588132688787E+00  1.607190281052E+00  1.626476564425E+00
  1.645994283198E+00  1.665746214596E+00  1.685735169171E+00  1.705963991201E+00
  1.726435559096E+00  1.747152785805E+00  1.768118619235E+00  1.789336042665E+00
  1.810808075177E+00  1.832537772080E+00  1.854528225345E+00  1.876782564049E+00
  1.899303954817E+00  1.922095602275E+00  1.945160749502E+00  1.968502678496E+00
  1.992124710638E+00  2.016030207166E+00  2.040222569652E+00  2.064705240488E+00
  2.089481703374E+00  2.114555483814E+00  2.139930149620E+00  2.165609311415E+00
  2.191596623152E+00  2.217895782630E+00  2.244510532022E+00  2.271444658406E+00
  2.298701994307E+00  2.326286418239E+00  2.354201855257E+00  2.382452277520E+00
  2.411041704851E+00  2.439974205309E+00  2.469253895773E+00  2.498884942522E+00
  2.528871561832E+00  2.559218020574E+00  2.589928636821E+00  2.621007780463E+00
  2.652459873828E+00  2.684289392314E+00  2.716500865022E+00  2.749098875402E+00
  2.782088061907E+00  2.815473118650E+00  2.849258796074E+00  2.883449901627E+00
  2.918051300446E+00  2.953067916052E+00  2.988504731044E+00  3.024366787817E+00
  3.060659189271E+00  3.097387099542E+00  3.134555744736E+00  3.172170413673E+00
  3.210236458637E+00  3.248759296141E+00  3.287744407695E+00  3.327197340587E+00
  3.367123708674E+00  3.407529193178E+00  3.448419543496E+00  3.489800578018E+00
  3.531678184954E+00  3.574058323174E+00  3.616947023052E+00  3.660350387329E+00
  3.704274591977E+00  3.748725887080E+00  3.793710597725E+00  3.839235124898E+00
  3.885305946397E+00  3.931929617754E+00  3.979112773167E+00  4.026862126445E+00
  4.075184471962E+00  4.124086685625E+00  4.173575725853E+00  4.223658634563E+00
  4.274342538178E+00  4.325634648636E+00  4.377542264420E+00  4.430072771593E+00
  4.483233644852E+00  4.537032448590E+00  4.591476837973E+00  4.646574560029E+00
  4.702333454749E+00  4.758761456206E+00  4.815866593681E+00  4.873656992805E+00
  4.932140876718E+00  4.991326567239E+00  5.051222486046E+00  5.111837155879E+00
  5.173179201749E+00  5.235257352170E+00  5.298080440396E+00  5.361657405681E+00
  5.425997294549E+00  5.491109262084E+00  5.557002573229E+00  5.623686604107E+00
  5.691170843357E+00  5.759464893477E+00  5.828578472199E+00  5.898521413865E+00
  5.969303670831E+00  6.040935314881E+00  6.113426538660E+00  6.186787657124E+00
  6.261029109009E+00  6.336161458317E+00  6.412195395817E+00  6.489141740567E+00
  6.567011441454E+00  6.645815578751E+00  6.725565365696E+00  6.806272150085E+00
  6.887947415886E+00  6.970602784876E+00  7.054250018295E+00  7.138901018514E+00
  7.224567830737E+00  7.311262644705E+00  7.398997796442E+00  7.487785769999E+00
  7.577639199239E+00  7.668570869630E+00  7.760593720066E+00  7.853720844706E+00
  7.947965494843E+00  8.043341080781E+00  8.139861173750E+00  8.237539507835E+00
  8.336389981929E+00  8.436426661713E+00  8.537663781653E+00  8.640115747033E+00
  8.743797135997E+00  8.848722701629E+00  8.954907374049E+00  9.062366262537E+00
  9.171114657688E+00  9.281168033580E+00  9.392542049983E+00  9.505252554583E+00
  9.619315585238E+00  9.734747372261E+00  9.851564340728E+00  9.969783112817E+00
  1.008942051017E+01  1.021049355629E+01  1.033301947897E+01  1.045701571272E+01
  1.058249990127E+01  1.070948990008E+01  1.083800377888E+01  1.096805982423E+01
  1.109967654212E+01  1.123287266063E+01  1.136766713255E+01  1.150407913815E+01
  1.164212808780E+01  1.178183362486E+01  1.192321562836E+01  1.206629421590E+01
  1.221108974649E+01  1.235762282344E+01  1.250591429733E+01  1.265598526889E+01
  1.280785709212E+01  1.296155137723E+01  1.311708999375E+01  1.327449507368E+01
  1.343378901456E+01  1.359499448274E+01  1.375813441653E+01  1.392323202953E+01
  1.409031081388E+01  1.425939454365E+01  1.443050727817E+01  1.460367336551E+01
  1.477891744590E+01  1.495626445525E+01  1.513573962871E+01  1.531736850425E+01
  1.550117692631E+01  1.568719104942E+01  1.587543734201E+01  1.606594259012E+01
  1.625873390120E+01  1.645383870801E+01  1.665128477251E+01  1.685110018978E+01
  1.705331339206E+01  1.725795315276E+01  1.746504859060E+01  1.767462917368E+01
  1.788672472377E+01  1.810136542045E+01  1.831858180550E+01  1.853840478716E+01
  1.876086564461E+01  1.898599603234E+01  1.921382798473E+01  1.944439392055E+01
  1.967772664760E+01  1.991385936737E+01  2.015282567978E+01  2.039465958793E+01
  2.063939550299E+01  2.088706824902E+01  2.113771306801E+01  2.139136562483E+01
  2.164806201233E+01  2.190783875647E+01  2.217073282155E+01  2.243678161541E+01
  2.270602299480E+01  2.297849527073E+01  2.325423721398E+01  2.353328806055E+01
  2.381568751728E+01  2.410147576748E+01  2.439069347669E+01  2.468338179841E+01
  2.497958237999E+01  2.527933736855E+01  2.558268941698E+01  2.588968168998E+01
  2.620035787026E+01  2.651476216470E+01  2.683293931068E+01  2.715493458241E+01
  2.748079379740E+01  2.781056332297E+01  2.814429008284E+01  2.848202156384E+01
  2.882380582260E+01  2.916969149247E+01  2.951972779038E+01  2.987396452387E+01
  3.023245209815E+01  3.059524152333E+01  3.096238442161E+01  3.133393303467E+01
  3.170994023109E+01  3.209045951386E+01  3.247554502803E+01  3.286525156836E+01
  3.325963458718E+01  3.365875020223E+01  3.406265520466E+01  3.447140706711E+01
  3.488506395192E+01  3.530368471934E+01  3.572732893597E+01  3.615605688320E+01
  3.658992956580E+01  3.702900872059E+01  3.747335682524E+01  3.792303710714E+01
  3.837811355243E+01  3.883865091506E+01  3.930471472604E+01  3.977637130275E+01
  4.025368775838E+01  4.073673201148E+01  4.122557279562E+01  4.172027966917E+01
  4.222092302520E+01  4.272757410150E+01  4.324030499072E+01  4.375918865061E+01
  4.428429891442E+01
</grid-data>
</grid>
<valence-charge total-charge="9" is-unscreening-charge="yes"
 rescaled-to-z-pseudo="no">
<radfunc>
<data npts="457">
  1.699741820948E+01  1.700374868414E+01  1.702266490243E+01  1.705419820814E+01
  1.709798748792E+01  1.715547229052E+01  1.722858215668E+01  1.731208776262E+01
  1.740571134665E+01  1.751453113661E+01  1.763672517058E+01  1.776898381318E+01
  1.792805104522E+01  1.809327581976E+01  1.828699541399E+01  1.847917801283E+01
  1.869889099710E+01  1.890558582631E+01  1.913612889036E+01  1.939293313840E+01
  1.967856237250E+01  1.992962760683E+01  2.020229335472E+01  2.049801715822E+01
  2.081826662544E+01  2.116449579620E+01  2.153811517568E+01  2.183710863896E+01
  2.215277605293E+01  2.248558101967E+01  2.283591935559E+01  2.320410206729E+01
  2.359033601544E+01  2.399470209493E+01  2.441713077611E+01  2.485737487949E+01
  2.531497949568E+01  2.578924901824E+01  2.611421944835E+01  2.644580676968E+01
  2.678357929140E+01  2.712703224630E+01  2.747558208181E+01  2.782856062253E+01
  2.818520915014E+01  2.854467245553E+01  2.890599292933E+01  2.926810476844E+01
  2.962982838937E+01  2.998986515277E+01  3.034679251842E+01  3.069905976591E+01
  3.104498443179E+01  3.138274963125E+01  3.171040244862E+01  3.202585359744E+01
  3.232687856615E+01  3.261112047955E+01  3.287609491775E+01  3.311919694298E+01
  3.333771058932E+01  3.352882106980E+01  3.368962994826E+01  3.381717350891E+01
  3.390844453257E+01  3.396041765422E+01  3.397007843025E+01  3.395811066669E+01
  3.393445618363E+01  3.389875649286E+01  3.385066062122E+01  3.378982645336E+01
  3.371592212686E+01  3.362862747700E+01  3.352763552778E+01  3.341265402531E+01
  3.328340700918E+01  3.313963641652E+01  3.298110371316E+01  3.280759154545E+01
  3.261890540544E+01  3.241487530188E+01  3.219535742841E+01  3.196023581972E+01
  3.170942398588E+01  3.144286651430E+01  3.116054062800E+01  3.086245768856E+01
  3.054866463124E+01  3.021924531942E+01  2.987432180506E+01  2.951405548147E+01
  2.913864811424E+01  2.874834273646E+01  2.834342439367E+01  2.792422072465E+01
  2.749110236379E+01  2.704448315170E+01  2.658482014079E+01  2.611261338343E+01
  2.562840549121E+01  2.513278095484E+01  2.462636521535E+01  2.410982347915E+01
  2.358385927056E+01  2.304921271788E+01  2.250665857074E+01  2.195700394901E+01
  2.140108582571E+01  2.083976824922E+01  2.027393931271E+01  1.970450788154E+01
  1.913240009247E+01  1.855855564124E+01  1.798392387861E+01  1.740945973722E+01
  1.683611951543E+01  1.626485654617E+01  1.569661678238E+01  1.513233433225E+01
  1.457292698021E+01  1.401929173091E+01  1.347230041534E+01  1.293279539878E+01
  1.240158543100E+01  1.187944167903E+01  1.136709398221E+01  1.086522736808E+01
  1.037447886574E+01  9.895434651171E+00  9.428627555654E+00  8.974534965139E+00
  8.533577134079E+00  8.106115932694E+00  7.692454041502E+00  7.292834601545E+00
  6.907441323005E+00  6.536399049043E+00  6.179774765727E+00  5.837579043078E+00
  5.509767886533E+00  5.196244972762E+00  4.896864238814E+00  4.611432789157E+00
  4.339714081404E+00  4.081431348536E+00  3.836271213154E+00  3.603887448032E+00
  3.383904836717E+00  3.175923088405E+00  2.979520762619E+00  2.794259161332E+00
  2.619686149056E+00  2.455339864894E+00  2.300752294584E+00  2.155452833440E+00
  2.018972282270E+00  1.890846978481E+00  1.770621319519E+00  1.657850051262E+00
  1.552100301263E+00  1.452953365103E+00  1.360006246914E+00  1.272872959706E+00
  1.191185592215E+00  1.114595149897E+00  1.042772178024E+00  9.754071747260E-01
  9.122108013339E-01  8.529138967815E-01  7.972673021649E-01  7.450415010869E-01
  6.960260812660E-01  6.500290232187E-01  6.068758227609E-01  5.664084556897E-01
  5.284835668681E-01  4.929681456499E-01  4.597340851049E-01  4.286581674980E-01
  3.996219662985E-01  3.725117869052E-01  3.472185986387E-01  3.236379587161E-01
  3.016699289206E-01  2.812189856758E-01  2.621939242279E-01  2.445077576312E-01
  2.280776112154E-01  2.128246132023E-01  1.986737821170E-01  1.855539116183E-01
  1.733974533451E-01  1.621403983503E-01  1.517221576579E-01  1.420854424460E-01
  1.331761443181E-01  1.249432160820E-01  1.173385534078E-01  1.103168776820E-01
  1.038356203189E-01  9.785480872119E-02  9.233695401610E-02  8.724694061636E-02
  8.255191757993E-02  7.822119167223E-02  7.422612197260E-02  7.054001582743E-02
  6.713802594542E-02  6.399704846932E-02  6.109562195704E-02  5.841382737046E-02
  5.593318940370E-02  5.363657976979E-02  5.150812337146E-02  4.953310855243E-02
  4.769790278451E-02  4.598987511637E-02  4.439732643475E-02  4.290942806832E-02
  4.151616856933E-02  4.020830778264E-02  3.897733672504E-02  3.781544148954E-02
  3.671546941463E-02  3.567089607088E-02  3.467579210014E-02  3.372478945574E-02
  3.281304702751E-02  3.193621593258E-02  3.109040490689E-02  3.027214626649E-02
  2.947836286380E-02  2.870633637752E-02  2.795367717636E-02  2.721829590332E-02
  2.649837684871E-02  2.579235311910E-02  2.509888356542E-02  2.441683140345E-02
  2.374524444172E-02  2.308333682180E-02  2.243047217148E-02  2.178614807178E-02
  2.114998174060E-02  2.052169684034E-02  1.990111132137E-02  1.928812621881E-02
  1.868271532537E-02  1.808491566859E-02  1.749481872610E-02  1.691256231776E-02
  1.633832311868E-02  1.577230974213E-02  1.521475634629E-02  1.466591672372E-02
  1.412605883711E-02  1.359545976987E-02  1.307440106466E-02  1.256316442744E-02
  1.206202777899E-02  1.157126163970E-02  1.109112583702E-02  1.062186652781E-02
  1.016371353041E-02  9.716877962555E-03  9.281550182663E-03  8.857898031913E-03
  8.446065374290E-03  8.046170930685E-03  7.658307401625E-03  7.282540871299E-03
  6.918910483388E-03  6.567428376978E-03  6.228079868581E-03  5.900823864221E-03
  5.585593483681E-03  5.282296877470E-03  4.990818215886E-03  4.711018829958E-03
  4.442738476465E-03  4.185796716882E-03  3.939994377334E-03  3.705115074162E-03
  3.480926784068E-03  3.267183440029E-03  3.063626535467E-03  2.869986720642E-03
  2.685985376782E-03  2.511336155066E-03  2.345746469192E-03  2.188918931894E-03
  2.040552727301E-03  1.900344912580E-03  1.767991643689E-03  1.643189321454E-03
  1.525635655390E-03  1.415030643826E-03  1.311077469948E-03  1.213483314249E-03
  1.121960084733E-03  1.036225066875E-03  9.560014959760E-04  8.810190550340E-04
  8.110143016652E-04  7.457310279197E-04  6.849205570792E-04  6.283419816736E-04
  5.757623470412E-04  5.269567847736E-04  4.817086003483E-04  4.398093191590E-04
  4.010586950125E-04  3.652646849886E-04  3.322433943458E-04  3.018189949259E-04
  2.738236202584E-04  2.480972403072E-04  2.244875185367E-04  2.028496537164E-04
  1.830462086306E-04  1.649469276230E-04  1.484285446865E-04  1.333745836096E-04
  1.196751515154E-04  1.072267269755E-04  9.593194376045E-05  8.569937114626E-05
  7.644329172787E-05  6.808347736097E-05  6.054496419635E-05  5.375782737057E-05
  4.765695604433E-05  4.218182949063E-05  3.727629484899E-05  3.288834716715E-05
  2.896991233834E-05  2.547663352032E-05  2.236766159983E-05  1.960545023876E-05
  1.715555600701E-05  1.498644406984E-05  1.306929985680E-05  1.137784709372E-05
  9.888172530790E-06  8.578557648148E-06  7.429317567699E-06  6.422647345678E-06
  5.542475766915E-06  4.774326708797E-06  4.105188091884E-06  3.523388385479E-06
  3.018480590861E-06  2.581133582850E-06  2.203030652235E-06  1.876775057689E-06
  1.595802366183E-06  1.354299335757E-06  1.147129073733E-06  9.697621869297E-07
  8.182136280765E-07  6.889849341026E-07  5.790115471095E-07  4.856149072554E-07
  4.064590082142E-07  3.395111099589E-07  2.830063100299E-07  2.354156828443E-07
  1.954177066592E-07  1.618727092073E-07  1.338000754811E-07  1.103579743832E-07
  9.082537473268E-08  7.458613519882E-08  6.111496691757E-08  4.996508167014E-08
  4.075735240214E-08  3.317082642049E-08  2.693444471355E-08  2.181983341569E-08
  1.763504541644E-08  1.421914144868E-08  1.143751064892E-08  9.177840547648E-09
  7.346655712478E-09  5.866352836442E-09  4.672667949803E-09  3.712518657021E-09
  2.942170885414E-09  2.325685608613E-09  1.833606408797E-09  1.441853601755E-09
  1.130795004354E-09  8.844673116105E-10  6.899255069542E-10  5.367007903412E-10
  4.163502095583E-10  3.220835538035E-10  2.484551473247E-10  1.911099945039E-10
  1.465753043749E-10  1.120897881655E-10  8.546430207432E-11  6.496842109971E-11
  4.923839833566E-11  3.720270585993E-11  2.802198444805E-11  2.104076446110E-11
  1.574877236928E-11  1.175001801518E-11  8.738177054646E-12  6.477049964799E-12
  4.785101377383E-12  3.523268066522E-12  2.585376569281E-12  1.890637211890E-12
  1.377784603727E-12  1.000519163099E-12  7.239731178583E-13  5.219803616190E-13
  3.749748058834E-13  2.683783513924E-13  1.913688997578E-13  1.359422648246E-13
  9.620052238673E-14  6.781416582404E-14  4.761716177530E-14  3.330323679070E-14
  2.319897280477E-14  1.609495221296E-14  1.112060066921E-14  7.651791869564E-15
  5.242915564398E-15  3.577137105717E-15  2.430128511999E-15  1.643733771191E-15
  1.106928759730E-15  7.421144954162E-16  4.952928048118E-16  3.290557687851E-16
  2.176053750837E-16  1.432314166890E-16  9.383203917264E-17  6.117634876412E-17
  3.969268643255E-17  2.562752770513E-17  1.646441896230E-17  1.052455709728E-17
  6.693497283795E-18  4.235139915918E-18  2.665759496052E-18  1.669111912581E-18
  1.039522223894E-18  0.000000000000E+00  0.000000000000E+00  0.000000000000E+00
  0.000000000000E+00
</data>
</radfunc>
</valence-charge>
<semilocal-potentials set="scalar_relativistic">
<slps n="2" l="s" rc="1.20707706276" eref="-2.08563986886">
<radfunc>
<data npts="256">
 -1.678704534927E+01 -1.678947616571E+01 -1.679650304985E+01 -1.680754671317E+01
 -1.682159106165E+01 -1.683796692804E+01 -1.685582339123E+01 -1.687273058085E+01
 -1.688796983841E+01 -1.690160583974E+01 -1.691267822359E+01 -1.692062416137E+01
 -1.692582456099E+01 -1.692733597137E+01 -1.692529477298E+01 -1.692021633493E+01
 -1.691165897120E+01 -1.690162310766E+01 -1.688876352048E+01 -1.687293574268E+01
 -1.685402071018E+01 -1.683660074626E+01 -1.681710335149E+01 -1.679549521701E+01
 -1.677174793145E+01 -1.674583629040E+01 -1.671773666681E+01 -1.669521196030E+01
 -1.667143297336E+01 -1.664638872197E+01 -1.662006731977E+01 -1.659245574735E+01
 -1.656353961368E+01 -1.653330288146E+01 -1.650172751962E+01 -1.646879303715E+01
 -1.643447584201E+01 -1.639874835568E+01 -1.637413060925E+01 -1.634886031743E+01
 -1.632292454222E+01 -1.629630839475E+01 -1.626899463420E+01 -1.624096318719E+01
 -1.621219057502E+01 -1.618264923538E+01 -1.615230672418E+01 -1.612112478417E+01
 -1.608905826838E+01 -1.605605391040E+01 -1.602204894002E+01 -1.598696955307E+01
 -1.595072925881E+01 -1.591322714852E+01 -1.587434615432E+01 -1.583395139808E+01
 -1.579188876461E+01 -1.574798386827E+01 -1.570204161166E+01 -1.565384655295E+01
 -1.560316429452E+01 -1.554974407077E+01 -1.549332263965E+01 -1.543362946646E+01
 -1.537039303581E+01 -1.530334795245E+01 -1.523224232166E+01 -1.519509352153E+01
 -1.515684476867E+01 -1.511747132746E+01 -1.507695040093E+01 -1.503526121484E+01
 -1.499238506428E+01 -1.494830532122E+01 -1.490300740315E+01 -1.485647870394E+01
 -1.480870848942E+01 -1.475968776138E+01 -1.470940909451E+01 -1.465786645195E+01
 -1.460505498524E+01 -1.455097082513E+01 -1.449561086950E+01 -1.443897257448E+01
 -1.438105375461E+01 -1.432185239680E+01 -1.426136649253E+01 -1.419959389157E+01
 -1.413653217958E+01 -1.407217858111E+01 -1.400652988857E+01 -1.393958241689E+01
 -1.387133198282E+01 -1.380177390741E+01 -1.373090303952E+01 -1.365871379787E+01
 -1.358520022916E+01 -1.351035607933E+01 -1.343417487530E+01 -1.335665001456E+01
 -1.327777486002E+01 -1.319754283786E+01 -1.311594753643E+01 -1.303298280433E+01
 -1.294864284644E+01 -1.286292231664E+01 -1.277581640656E+01 -1.268732092996E+01
 -1.259743240254E+01 -1.250614811767E+01 -1.241346621840E+01 -1.231938576689E+01
 -1.222390681250E+01 -1.212703046028E+01 -1.202875894193E+01 -1.192909569178E+01
 -1.182804543077E+01 -1.172561426182E+01 -1.162180978066E+01 -1.151664120664E+01
 -1.141011953853E+01 -1.130225774120E+01 -1.119307096945E+01 -1.108257683592E+01
 -1.097079573079E+01 -1.085775120117E+01 -1.074347039887E+01 -1.062798460514E+01
 -1.051132984132E+01 -1.039354757380E+01 -1.027468552120E+01 -1.015479857071E+01
 -1.003394980865E+01 -9.912211668489E+00 -9.789667196731E+00 -9.666411433633E+00
 -9.542552902159E+00 -9.418215194011E+00 -9.293538637014E+00 -9.168682023268E+00
 -9.043824372558E+00 -8.919166700827E+00 -8.794933759195E+00 -8.671375705257E+00
 -8.548769665384E+00 -8.427421144671E+00 -8.307665240088E+00 -8.189867612471E+00
 -8.074425174283E+00 -7.961766452775E+00 -7.852351592359E+00 -7.746671965842E+00
 -7.645249371917E+00 -7.548634772422E+00 -7.457407001827E+00 -7.369550528777E+00
 -7.282492318407E+00 -7.196301936213E+00 -7.110991454336E+00 -7.026573440626E+00
 -6.943060789467E+00 -6.860466513335E+00 -6.778803502155E+00 -6.698084205799E+00
 -6.618320200822E+00 -6.539521602432E+00 -6.461696292215E+00 -6.384848951475E+00
 -6.308979920553E+00 -6.234083945583E+00 -6.160148922466E+00 -6.087154797168E+00
 -6.015072822234E+00 -5.943865390426E+00 -5.873486028709E+00 -5.803887723135E+00
 -5.735062213986E+00 -5.667057180024E+00 -5.599857881814E+00 -5.533455498675E+00
 -5.467840530424E+00 -5.403003640242E+00 -5.338935601987E+00 -5.275627298880E+00
 -5.213069722213E+00 -5.151253970075E+00 -5.090171246116E+00 -5.029812858335E+00
 -4.970170217894E+00 -4.911234837968E+00 -4.852998332487E+00 -4.795452415697E+00
 -4.738588899417E+00 -4.682399694257E+00 -4.626876806687E+00 -4.572012338778E+00
 -4.517798486899E+00 -4.464227540526E+00 -4.411291880964E+00 -4.358983979933E+00
 -4.307296397998E+00 -4.256221782820E+00 -4.205752867218E+00 -4.155882467071E+00
 -4.106603479134E+00 -4.057908878893E+00 -4.009791718670E+00 -3.962245126223E+00
 -3.915262304129E+00 -3.868836530244E+00 -3.822961159376E+00 -3.777629626181E+00
 -3.732835448976E+00 -3.688572233840E+00 -3.644833678108E+00 -3.601613572201E+00
 -3.558905798895E+00 -3.516704329546E+00 -3.475003217502E+00 -3.433796589727E+00
 -3.393078638163E+00 -3.352843612497E+00 -3.313085815539E+00 -3.273799601641E+00
 -3.234979377784E+00 -3.196619606375E+00 -3.158714808661E+00 -3.121259567854E+00
 -3.084248531402E+00 -3.047676412230E+00 -3.011537989026E+00 -2.975828105797E+00
 -2.940541670944E+00 -2.905673656090E+00 -2.871219094801E+00 -2.837173081337E+00
 -2.803530769456E+00 -2.770287371327E+00 -2.737438156528E+00 -2.704978451136E+00
 -2.672903636890E+00 -2.641209150415E+00 -2.609890482493E+00 -2.578943177371E+00
 -2.548362832098E+00 -2.518145095882E+00 -2.488285669470E+00 -2.458780304533E+00
 -2.429624803071E+00 -2.400815016818E+00 -2.372346846666E+00 -2.344216242082E+00
 -2.316419200547E+00 -2.288951766987E+00 -2.261810033218E+00 -2.234990137396E+00
</data>
</radfunc>
</slps>
<slps n="2" l="p" rc="1.55069276272" eref="-1.05370848645">
<radfunc>
<data npts="256">
 -2.332958461446E+01 -2.333178096939E+01 -2.333810692345E+01 -2.334798104207E+01
 -2.336039900473E+01 -2.337463578144E+01 -2.338976506855E+01 -2.340354811554E+01
 -2.341527295783E+01 -2.342480837849E+01 -2.343125583236E+01 -2.343417131903E+01
 -2.343328728354E+01 -2.342843843474E+01 -2.341888686716E+01 -2.340629981391E+01
 -2.338908615232E+01 -2.337083516435E+01 -2.334872864227E+01 -2.332249373413E+01
 -2.329186732064E+01 -2.326403125919E+01 -2.323308839207E+01 -2.319890504910E+01
 -2.316134293077E+01 -2.312025655868E+01 -2.307549071595E+01 -2.303940147771E+01
 -2.300107271213E+01 -2.296042330868E+01 -2.291736644449E+01 -2.287180904286E+01
 -2.282365120498E+01 -2.277278558499E+01 -2.271909667018E+01 -2.266245991858E+01
 -2.260274069529E+01 -2.253979293566E+01 -2.249595611975E+01 -2.245056312132E+01
 -2.240355974377E+01 -2.235488802310E+01 -2.230448574621E+01 -2.225228588532E+01
 -2.219821593532E+01 -2.214219714019E+01 -2.208414359381E+01 -2.202396120114E+01
 -2.196154648732E+01 -2.189678524605E+01 -2.182955102512E+01 -2.175970345714E+01
 -2.168708645825E+01 -2.161152633757E+01 -2.153282988572E+01 -2.145078254159E+01
 -2.136514677082E+01 -2.127566082465E+01 -2.118203807738E+01 -2.108396715876E+01
 -2.098111309432E+01 -2.087311963194E+01 -2.075961286045E+01 -2.064020611070E+01
 -2.051450597793E+01 -2.038211913032E+01 -2.024265939989E+01 -2.017016016205E+01
 -2.009575452289E+01 -2.001939905952E+01 -1.994105184353E+01 -1.986067251916E+01
 -1.977822234467E+01 -1.969366419592E+01 -1.960696253221E+01 -1.951808332587E+01
 -1.942699395826E+01 -1.933366308616E+01 -1.923806048340E+01 -1.914015686365E+01
 -1.903992369055E+01 -1.893733298199E+01 -1.883235711531E+01 -1.872496863992E+01
 -1.861514010357E+01 -1.850284389783E+01 -1.838805212773E+01 -1.827073650933E+01
 -1.815086829866E+01 -1.802841825398E+01 -1.790335663308E+01 -1.777565322602E+01
 -1.764527742342E+01 -1.751219831984E+01 -1.737638485123E+01 -1.723780596524E+01
 -1.709643082318E+01 -1.695222903207E+01 -1.680517090575E+01 -1.665522775362E+01
 -1.650237219645E+01 -1.634657850844E+01 -1.618782298534E+01 -1.602608433875E+01
 -1.586134411691E+01 -1.569358715295E+01 -1.552280204141E+01 -1.534898164478E+01
 -1.517212363139E+01 -1.499223104684E+01 -1.480931292084E+01 -1.462338491168E+01
 -1.443446999069E+01 -1.424259916873E+01 -1.404781226694E+01 -1.385015873355E+01
 -1.364969850839E+01 -1.344650293614E+01 -1.324065572888E+01 -1.303225397757E+01
 -1.282140921119E+01 -1.260824850110E+01 -1.239291560635E+01 -1.217557215434E+01
 -1.195639884840E+01 -1.173559669183E+01 -1.151338821444E+01 -1.129001868404E+01
 -1.106575728147E+01 -1.084089821243E+01 -1.061576172459E+01 -1.039069499185E+01
 -1.016607282173E+01 -9.942298134550E+00 -9.719802156095E+00 -9.499044258705E+00
 -9.280511378852E+00 -9.064716934025E+00 -8.852199157555E+00 -8.643518768277E+00
 -8.439255892970E+00 -8.240006164305E+00 -8.046375926106E+00 -7.858976491893E+00
 -7.678417422217E+00 -7.505298811647E+00 -7.340202607225E+00 -7.183683016463E+00
 -7.036256103641E+00 -6.898388716974E+00 -6.770486934456E+00 -6.652884260543E+00
 -6.545829846824E+00 -6.449477010823E+00 -6.363872819259E+00 -6.288949399927E+00
 -6.224514190748E+00 -6.170238392262E+00 -6.125656613252E+00 -6.090163800123E+00
 -6.063014835553E+00 -6.043326504803E+00 -6.030081868806E+00 -6.022136960905E+00
 -6.018229668008E+00 -6.016990611221E+00 -6.016955828727E+00 -6.016581092164E+00
 -6.014257764415E+00 -6.008330235902E+00 -5.997115157772E+00 -5.978922918376E+00
 -5.952082072759E+00 -5.914967716926E+00 -5.866034450538E+00 -5.803863460800E+00
 -5.735062213986E+00 -5.667057180024E+00 -5.599857881814E+00 -5.533455498675E+00
 -5.467840530424E+00 -5.403003640242E+00 -5.338935601987E+00 -5.275627298880E+00
 -5.213069722213E+00 -5.151253970075E+00 -5.090171246116E+00 -5.029812858335E+00
 -4.970170217894E+00 -4.911234837968E+00 -4.852998332487E+00 -4.795452415697E+00
 -4.738588899417E+00 -4.682399694257E+00 -4.626876806687E+00 -4.572012338778E+00
 -4.517798486899E+00 -4.464227540526E+00 -4.411291880964E+00 -4.358983979933E+00