<?xml version="1.0" encoding="UTF-8" ?>
<psml version="1.1" energy_unit="hartree" length_unit="bohr"
 uuid="3ce1eeb0-be45-11e7-559c-c451ff5abc41"
 xmlns="http://esl.cecam.org/PSML/ns/1.1">
<provenance creator="ONCVPSP-3.3.0+psml-3.3.0-73 (scalar-relativistic)"
 date="2017-10-31">
<annotation action="semilocal-pseudopotential-generation"
 action-cont="projectors-generation" />
<input-file name="oncvpsp-input">
<![CDATA[# atsym z nc nv iexc psfile
Sn 50 8 3 4 upf
# n l f
1 0 2.0
2 0 2.0
2 1 6.0
3 0 2.0
3 1 6.0
3 2 10.0
4 0 2.0
4 1 6.0
4 2 10.0
5 0 2.0
5 1 2.0
# lmax
2
# l rc ep ncon nbas qcut
0 2.25 0.0 4 7 3.4
1 2.6 0.0 4 7 3.4
2 1.85 0.0 4 8 8.4
# lloc lpopt rc5 dvloc0
4 5 1.85 0.0
# l nproj debl
0 2 1.9
1 2 2.5
2 2 2.0
# icmod fcfact
3 6.5 1.31
# epsh1 epsh2 depsh
-12.0 12.0 0.02
# rlmax drl
6.0 0.01
 0
]]>
</input-file>
</provenance>
<pseudo-atom-spec atomic-label="Sn" atomic-number="50" z-pseudo="14"
 flavor="Hamann&apos;s oncvpsp" relativity="scalar" spin-dft="no"
 core-corrections="yes">
<annotation pseudo-energy="-67.5824970632" />
<exchange-correlation>
<annotation oncvpsp-xc-code="4" oncvpsp-xc-type="GGA -- Perdew-Burke-Ernzerhof" />
<libxc-info number-of-functionals="2">
<functional name="Perdew, Burke &amp; Ernzerhof (GGA)" type="exchange" id="101" />
<functional name="Perdew, Burke &amp; Ernzerhof (GGA)" type="correlation"
 id="130" />
</libxc-info>
</exchange-correlation>
<valence-configuration total-valence-charge="14">
<shell n="4" l="d" occupation="10" />
<shell n="5" l="s" occupation="2" />
<shell n="5" l="p" occupation="2" />
</valence-configuration>
</pseudo-atom-spec>
<grid npts="457">
<annotation type="sampled from oncvpsp log grid"
 recipe="r(i:1..N) = r1*exp(a*(i-1)) + r=0; resampled"
 recipe-cont="r1: scale; a: step" scale="0.100000000000E-04"
 step="0.119285708653E-01" delta="0.500000000000E-02" rmax="44.3197745331" />
<grid-data>
  0.000000000000E+00  5.000886690540E-03  1.010874525337E-02  1.516472982503E-02
  2.019142533776E-02  2.532775607628E-02  3.065384203313E-02  3.579575917496E-02
  4.081475699656E-02  4.598565112489E-02  5.119728757278E-02  5.632368393398E-02
  6.196338756004E-02  6.735948224037E-02  7.322549696456E-02  7.865845337823E-02
  8.449450730050E-02  8.968731867555E-02  9.519926665294E-02  1.010499645334E-01
  1.072602309997E-01  1.125021385341E-01  1.180002229791E-01  1.237670039391E-01
  1.298156128636E-01  1.361598229479E-01  1.428140804965E-01  1.480173298599E-01
  1.534101529953E-01  1.589994567820E-01  1.647923997425E-01  1.707964012112E-01
  1.770191508363E-01  1.834686184287E-01  1.901530641691E-01  1.970810491874E-01
  2.042614465274E-01  2.117034525111E-01  2.168148206685E-01  2.220495976987E-01
  2.274107631856E-01  2.329013686519E-01  2.385245392967E-01  2.442834757734E-01
  2.501814560125E-01  2.562218370865E-01  2.624080571211E-01  2.687436372522E-01
  2.752321836300E-01  2.818773894716E-01  2.886830371630E-01  2.956530004123E-01
  3.027912464542E-01  3.101018383086E-01  3.175889370927E-01  3.252568043899E-01
  3.331098046751E-01  3.411524077992E-01  3.493891915331E-01  3.578248441734E-01
  3.664641672112E-01  3.753120780643E-01  3.843736128771E-01  3.936539293864E-01
  4.031583098575E-01  4.128921640907E-01  4.228610325005E-01  4.279353648905E-01
  4.330705892692E-01  4.382674363404E-01  4.435266455765E-01  4.488489653234E-01
  4.542351529073E-01  4.596859747422E-01  4.652022064391E-01  4.707846329164E-01
  4.764340485114E-01  4.821512570935E-01  4.879370721786E-01  4.937923170448E-01
  4.997178248493E-01  5.057144387475E-01  5.117830120125E-01  5.179244081566E-01
  5.241395010545E-01  5.304291750672E-01  5.367943251680E-01  5.432358570700E-01
  5.497546873548E-01  5.563517436031E-01  5.630279645263E-01  5.697843001006E-01
  5.766217117018E-01  5.835411722423E-01  5.905436663092E-01  5.976301903049E-01
  6.048017525885E-01  6.120593736196E-01  6.194040861030E-01  6.268369351363E-01
  6.343589783579E-01  6.419712860982E-01  6.496749415314E-01  6.574710408298E-01
  6.653606933197E-01  6.733450216396E-01  6.814251618992E-01  6.896022638420E-01
  6.978774910081E-01  7.062520209002E-01  7.147270451510E-01  7.233037696928E-01
  7.319834149291E-01  7.407672159083E-01  7.496564224992E-01  7.586522995692E-01
  7.677561271640E-01  7.769692006900E-01  7.862928310983E-01  7.957283450714E-01
  8.052770852123E-01  8.149404102349E-01  8.247196951577E-01  8.346163314996E-01
  8.446317274776E-01  8.547673082073E-01  8.650245159058E-01  8.754048100966E-01
  8.859096678178E-01  8.965405838316E-01  9.072990708376E-01  9.181866596876E-01
  9.292048996039E-01  9.403553583991E-01  9.516396226999E-01  9.630592981723E-01
  9.746160097504E-01  9.863114018674E-01  9.981471386898E-01  1.010124904354E+00
  1.022246403206E+00  1.034513360045E+00  1.046927520365E+00  1.059490650610E+00
  1.072204538417E+00  1.085070992878E+00  1.098091844793E+00  1.111268946930E+00
  1.124604174293E+00  1.138099424385E+00  1.151756617477E+00  1.165577696887E+00
  1.179564629250E+00  1.193719404801E+00  1.208044037658E+00  1.222540566110E+00
  1.237211052904E+00  1.252057585538E+00  1.267082276565E+00  1.282287263884E+00
  1.297674711050E+00  1.313246807583E+00  1.329005769274E+00  1.344953838505E+00
  1.361093284567E+00  1.377426403982E+00  1.393955520830E+00  1.410682987080E+00
  1.427611182925E+00  1.444742517120E+00  1.462079427325E+00  1.479624380453E+00
  1.497379873019E+00  1.515348431495E+00  1.533532612673E+00  1.551935004025E+00
  1.570558224073E+00  1.589404922762E+00  1.608477781835E+00  1.627779515217E+00
  1.647312869400E+00  1.667080623833E+00  1.687085591319E+00  1.707330618414E+00
  1.727818585835E+00  1.748552408865E+00  1.769535037772E+00  1.790769458225E+00
  1.812258691724E+00  1.834005796024E+00  1.856013865577E+00  1.878286031964E+00
  1.900825464347E+00  1.923635369919E+00  1.946718994358E+00  1.970079622291E+00
  1.993720577758E+00  2.017645224691E+00  2.041856967388E+00  2.066359250996E+00
  2.091155562008E+00  2.116249428752E+00  2.141644421897E+00  2.167344154960E+00
  2.193352284820E+00  2.219672512237E+00  2.246308582384E+00  2.273264285373E+00
  2.300543456797E+00  2.328149978279E+00  2.356087778018E+00  2.384360831355E+00
  2.412973161331E+00  2.441928839267E+00  2.471231985338E+00  2.500886769162E+00
  2.530897410392E+00  2.561268179317E+00  2.592003397468E+00  2.623107438238E+00
  2.654584727497E+00  2.686439744227E+00  2.718677021158E+00  2.751301145412E+00
  2.784316759156E+00  2.817728560266E+00  2.851541302990E+00  2.885759798625E+00
  2.920388916209E+00  2.955433583203E+00  2.990898786202E+00  3.026789571636E+00
  3.063111046496E+00  3.099868379054E+00  3.137066799603E+00  3.174711601198E+00
  3.212808140412E+00  3.251361838097E+00  3.290378180154E+00  3.329862718316E+00
  3.369821070936E+00  3.410258923787E+00  3.451182030873E+00  3.492596215243E+00
  3.534507369826E+00  3.576921458264E+00  3.619844515763E+00  3.663282649952E+00
  3.707242041752E+00  3.751728946253E+00  3.796749693608E+00  3.842310689931E+00
  3.888418418210E+00  3.935079439229E+00  3.982300392499E+00  4.030087997209E+00
  4.078449053176E+00  4.127390441814E+00  4.176919127116E+00  4.227042156641E+00
  4.277766662521E+00  4.329099862471E+00  4.381049060821E+00  4.433621649551E+00
  4.486825109345E+00  4.540667010657E+00  4.595155014785E+00  4.650296874963E+00
  4.706100437462E+00  4.762573642712E+00  4.819724526424E+00  4.877561220741E+00
  4.936091955390E+00  4.995325058855E+00  5.055268959561E+00  5.115932187076E+00
  5.177323373321E+00  5.239451253801E+00  5.302324668846E+00  5.365952564873E+00
  5.430343995651E+00  5.495508123599E+00  5.561454221082E+00  5.628191671735E+00
  5.695729971796E+00  5.764078731457E+00  5.833247676235E+00  5.903246648350E+00
  5.974085608130E+00  6.045774635427E+00  6.118323931053E+00  6.191743818225E+00
  6.266044744044E+00  6.341237280972E+00  6.417332128344E+00  6.494340113884E+00
  6.572272195251E+00  6.651139461594E+00  6.730953135133E+00  6.811724572755E+00
  6.893465267628E+00  6.976186850839E+00  7.059901093049E+00  7.144619906166E+00
  7.230355345040E+00  7.317119609180E+00  7.404925044490E+00  7.493784145024E+00
  7.583709554765E+00  7.674714069422E+00  7.766810638255E+00  7.860012365914E+00
  7.954332514305E+00  8.049784504477E+00  8.146381918530E+00  8.244138501553E+00
  8.343068163571E+00  8.443184981534E+00  8.544503201313E+00  8.647037239728E+00
  8.750801686605E+00  8.855811306844E+00  8.962081042526E+00  9.069626015037E+00
  9.178461527217E+00  9.288603065544E+00  9.400066302330E+00  9.512867097958E+00
  9.627021503134E+00  9.742545761171E+00  9.859456310305E+00  9.977769786029E+00
  1.009750302346E+01  1.021867305974E+01  1.034129713646E+01  1.046539270210E+01
  1.059097741452E+01  1.071806914350E+01  1.084668597322E+01  1.097684620490E+01
  1.110856835936E+01  1.124187117967E+01  1.137677363382E+01  1.151329491743E+01
  1.165145445644E+01  1.179127190992E+01  1.193276717284E+01  1.207596037891E+01
  1.222087190346E+01  1.236752236630E+01  1.251593263469E+01  1.266612382631E+01
  1.281811731223E+01  1.297193471997E+01  1.312759793661E+01  1.328512911185E+01
  1.344455066119E+01  1.360588526913E+01  1.376915589236E+01  1.393438576307E+01
  1.410159839222E+01  1.427081757293E+01  1.444206738380E+01  1.461537219241E+01
  1.479075665872E+01  1.496824573862E+01  1.514786468749E+01  1.532963906374E+01
  1.551359473250E+01  1.569975786929E+01  1.588815496372E+01  1.607881282329E+01
  1.627175857717E+01  1.646701968009E+01  1.666462391625E+01  1.686459940325E+01
  1.706697459609E+01  1.727177829124E+01  1.747903963074E+01  1.768878810631E+01
  1.790105356358E+01  1.811586620634E+01  1.833325660082E+01  1.855325568003E+01
  1.877589474819E+01  1.900120548517E+01  1.922921995099E+01  1.945997059040E+01
  1.969349023749E+01  1.992981212034E+01  2.016896986578E+01  2.041099750417E+01
  2.065592947422E+01  2.090380062791E+01  2.115464623545E+01  2.140850199027E+01
  2.166540401416E+01  2.192538886233E+01  2.218849352867E+01  2.245475545102E+01
  2.272421251643E+01  2.299690306663E+01  2.327286590343E+01  2.355214029427E+01
  2.383476597780E+01  2.412078316953E+01  2.441023256757E+01  2.470315535838E+01
  2.499959322268E+01  2.529958834135E+01  2.560318340145E+01  2.591042160226E+01
  2.622134666149E+01  2.653600282143E+01  2.685443485529E+01  2.717668807355E+01
  2.750280833043E+01  2.783284203040E+01  2.816683613476E+01  2.850483816838E+01
  2.884689622640E+01  2.919305898112E+01  2.954337568889E+01  2.989789619716E+01
  3.025667095152E+01  3.061975100294E+01  3.098718801498E+01  3.135903427116E+01
  3.173534268241E+01  3.211616679460E+01  3.250156079613E+01  3.289157952569E+01
  3.328627847999E+01  3.368571382175E+01  3.408994238762E+01  3.449902169627E+01
  3.491300995662E+01  3.533196607610E+01  3.575594966902E+01  3.618502106504E+01
  3.661924131782E+01  3.705867221364E+01  3.750337628020E+01  3.795341679556E+01
  3.840885779711E+01  3.886976409068E+01  3.933620125976E+01  3.980823567488E+01
  4.028593450298E+01  4.076936571702E+01  4.125859810562E+01  4.175370128289E+01
  4.225474569828E+01  4.276180264666E+01  4.327494427842E+01  4.379424360976E+01
  4.431977453308E+01
</grid-data>
</grid>
<valence-charge total-charge="14" is-unscreening-charge="yes"
 rescaled-to-z-pseudo="no">
<radfunc>
<data npts="457">
  2.182764720363E-03  2.185586370941E-03  2.196985698263E-03  2.224791344210E-03
  2.281957167710E-03  2.389869101421E-03  2.581275314255E-03  2.874529858277E-03
  3.298612093044E-03  3.919137312345E-03  4.780943981308E-03  5.912501949748E-03
  7.550380156171E-03  9.576137301429E-03  1.237875363222E-02  1.562255954530E-02
  1.990686381062E-02  2.450870438868E-02  3.030830952243E-02  3.761455231543E-02
  4.681420427881E-02  5.585828100097E-02  6.672280470603E-02  7.976720247050E-02
  9.541928089603E-02  1.141873586909E-01  1.366742585569E-01  1.564043853214E-01
  1.789725463991E-01  2.047718118476E-01  2.342459916192E-01  2.678952980008E-01
  3.062824223690E-01  3.500389979808E-01  3.998723993900E-01  4.565728022241E-01
  5.210203934324E-01  5.941925805907E-01  6.483506858843E-01  7.072124206664E-01
  7.711480482992E-01  8.405511997458E-01  9.158394436245E-01  9.974547049583E-01
  1.085863497078E+00  1.181556926465E+00  1.285050425339E+00  1.396883161509E+00
  1.517617069534E+00  1.647835441568E+00  1.788141010584E+00  1.939153453037E+00
  2.101506232681E+00  2.275842702308E+00  2.462811376023E+00  2.663060281441E+00
  2.877230299438E+00  3.105947399069E+00  3.349813677589E+00  3.609397120669E+00
  3.885220006561E+00  4.177745890737E+00  4.487365125263E+00  4.814378890544E+00
  5.158981746921E+00  5.521242750739E+00  5.901085224644E+00  6.097530449419E+00
  6.298265325632E+00  6.503229572825E+00  6.712349617297E+00  6.925537857192E+00
  7.142691925068E+00  7.363693951648E+00  7.588409834843E+00  7.816688518521E+00
  8.048361285911E+00  8.283241072960E+00  8.521121807368E+00  8.761777779474E+00
  9.004963051578E+00  9.250410912712E+00  9.497833386282E+00  9.746920798402E+00
  9.997341415113E+00  1.024874115702E+01  1.050074340022E+01  1.075294887257E+01
  1.100493565473E+01  1.125625929540E+01  1.150645305023E+01  1.175502825425E+01
  1.200147483692E+01  1.224526198949E+01  1.248583899335E+01  1.272263621812E+01
  1.295506629751E+01  1.318252549015E+01  1.340439523200E+01  1.362004388575E+01
  1.382882869147E+01  1.403009792158E+01  1.422319324130E+01  1.440745227450E+01
  1.458221137261E+01  1.474680858229E+01  1.490058680532E+01  1.504289714171E+01
  1.517310240441E+01  1.529058079141E+01  1.539472969799E+01  1.548496964904E+01
  1.556074832843E+01  1.562154467923E+01  1.566687304570E+01  1.569628732481E+01
  1.570938509258E+01  1.570581166722E+01  1.568526406921E+01  1.564749483579E+01
  1.559231564571E+01  1.551960070852E+01  1.542928987184E+01  1.532139139944E+01
  1.519598437330E+01  1.505322067363E+01  1.489332649236E+01  1.471660333796E+01
  1.452342849266E+01  1.431425488709E+01  1.408961036217E+01  1.385009629377E+01
  1.359638556219E+01  1.332921985573E+01  1.304940630565E+01  1.275781345837E+01
  1.245536660004E+01  1.214304245807E+01  1.182186331393E+01  1.149289057166E+01
  1.115721783603E+01  1.081596356384E+01  1.047026336097E+01  1.012126200564E+01
  9.770105285821E+00  9.417931744753E+00  9.065864433067E+00  8.715002769190E+00
  8.366414611049E+00  8.021128641552E+00  7.680127167899E+00  7.344339430307E+00
  7.014635509303E+00  6.691820912403E+00  6.376631910806E+00  6.069731684984E+00
  5.771707324854E+00  5.483067715906E+00  5.204242327618E+00  4.935580904941E+00
  4.677354048129E+00  4.429754650987E+00  4.192900153205E+00  3.966835549213E+00
  3.751537084196E+00  3.546916558028E+00  3.352826149972E+00  3.169063671387E+00
  2.995378150395E+00  2.831475651504E+00  2.677025234509E+00  2.531664960405E+00
  2.395007857323E+00  2.266647766271E+00  2.146164994434E+00  2.033131712510E+00
  1.927117041590E+00  1.827691784156E+00  1.734432762325E+00  1.646926734405E+00
  1.564773867826E+00  1.487590752488E+00  1.415012943528E+00  1.346697026627E+00
  1.282322202357E+00  1.221591389180E+00  1.164231847784E+00  1.109995333004E+00
  1.058657783880E+00  1.010018567910E+00  9.638993022351E-01  9.201415473809E-01
  8.786014181752E-01  8.391434183292E-01  8.016395381898E-01  7.659700382326E-01
  7.320228409491E-01  6.996933579054E-01  6.688841887267E-01  6.395047794620E-01
  6.114710420579E-01  5.847049437663E-01  5.591340760808E-01  5.346912131696E-01
  5.113138699299E-01  4.889438697065E-01  4.675269313829E-01  4.470122849748E-01
  4.273524030623E-01  4.085030965944E-01  3.904238030536E-01  3.730773787732E-01
  3.564296734683E-01  3.404492554417E-01  3.251070821033E-01  3.103761867467E-01
  2.962313780372E-01  2.826489590490E-01  2.696064717395E-01  2.570824723506E-01
  2.450563884348E-01  2.335086034770E-01  2.224206753313E-01  2.117752909277E-01
  2.015561099095E-01  1.917477017885E-01  1.823354584328E-01  1.733055179486E-01
  1.646446944547E-01  1.563404139027E-01  1.483806556684E-01  1.407538996199E-01
  1.334490783508E-01  1.264555342972E-01  1.197629814120E-01  1.133614711009E-01
  1.072413621215E-01  1.013932941484E-01  9.580816471774E-02  9.047710927168E-02
  8.539148403310E-02  8.054285145120E-02  7.592296797044E-02  7.152377388669E-02
  6.733738506723E-02  6.335608632353E-02  5.957232623893E-02  5.597871326555E-02
  5.256801291786E-02  4.933314590242E-02  4.626718703534E-02  4.336336481098E-02
  4.061506149608E-02  3.801581363485E-02  3.555931286059E-02  3.323940691900E-02
  3.105010081667E-02  2.898555802069E-02  2.704010163934E-02  2.520821552406E-02
  2.348454524034E-02  2.186389886203E-02  2.034124755092E-02  1.891172588955E-02
  1.757063194193E-02  1.631342702264E-02  1.513573516016E-02  1.403334224604E-02
  1.300219486620E-02  1.203839881504E-02  1.113821729775E-02  1.029806882935E-02
  9.514524842903E-03  8.784307021838E-03  8.104284374171E-03  7.471470068147E-03
  6.883018050716E-03  6.336219471320E-03  5.828498934392E-03  5.357410604364E-03
  4.920634187143E-03  4.515970811795E-03  4.141338835750E-03  3.794769596064E-03
  3.474403128442E-03  3.178483874552E-03  2.905356397004E-03  2.653461119975E-03
  2.421330112079E-03  2.207582926600E-03  2.010922512711E-03  1.830131209811E-03
  1.664066835597E-03  1.511658877060E-03  1.371904792140E-03  1.243866428424E-03
  1.126666563962E-03  1.019485574024E-03  9.215582264791E-04  8.321706073590E-04
  7.506571772170E-04  6.763979579327E-04  6.088158488229E-04  5.473740701766E-04
  4.915737316939E-04  4.409515227649E-04  3.950775210664E-04  3.535531155898E-04
  3.160090399287E-04  2.821035114560E-04  2.515204718915E-04  2.239679247042E-04
  1.991763647966E-04  1.768972959742E-04  1.569018318041E-04  1.389793756071E-04
  1.229363754894E-04  1.085951505110E-04  9.579278428483E-05  8.438008250598E-05
  7.422059111961E-05  6.518967203479E-05  5.717363348743E-05  5.006891233711E-05
  4.378130575168E-05  3.822524988789E-05  3.332314331533E-05  2.900471305509E-05
  2.520642121363E-05  2.187091028835E-05  1.894648530474E-05  1.638663101760E-05
  1.414956247206E-05  1.219780727609E-05  1.049781798523E-05  9.019613045579E-06
  7.736444782346E-06  6.624492960593E-06  5.662582483263E-06  4.831923829338E-06
  4.115874873440E-06  3.499722767425E-06  2.970484605005E-06  2.516725632471E-06
  2.128393812059E-06  1.796669589643E-06  1.513829764885E-06  1.273124409789E-06
  1.068665830367E-06  8.953286156703E-07  7.486598684601E-07  6.247987619542E-07
  5.204046170838E-07  4.325927442695E-07  3.588773425374E-07  2.971207966160E-07
  2.454887592285E-07  2.024104509103E-07  1.665436531619E-07  1.367439124336E-07
  1.120375122119E-07  9.159780824540E-08  7.472455765033E-08  6.082590622431E-08
  4.940272977374E-08  4.003505462160E-08  3.237030974371E-08  2.611318822674E-08
  2.101691901017E-08  1.687577123892E-08  1.351863309671E-08  1.080352479921E-08
  8.612921597505E-09  6.849777272746E-09  5.434151793107E-09  4.300358653874E-09
  3.394558030718E-09  2.672731342006E-09  2.098981233331E-09  1.644108457173E-09
  1.284423709814E-09  1.000758288560E-09  7.776425226157E-10  6.026253828907E-10
  4.657125571331E-10  3.589036490988E-10  2.758120812992E-10  2.113538023874E-10
  1.614930700163E-10  1.230354410363E-10  9.345969194195E-11  7.078174828097E-11
  5.344485331433E-11  4.023118113115E-11  3.019092207255E-11  2.258556019652E-11
  1.684264248584E-11  1.251982404698E-11  9.276377015761E-12  6.850685712886E-12
  5.042527515402E-12  3.699167162437E-12  2.704479703447E-12  1.970470771635E-12
  1.430688057613E-12  1.035119621743E-12  7.462571094714E-13  5.360684583070E-13
  3.836781820983E-13  2.735961824480E-13  1.943702557292E-13  1.375646796842E-13
  9.698882822871E-14  6.811678554664E-14  4.765231625509E-14  3.320403370803E-14
  2.304378983820E-14  1.592766841167E-14  1.096388566423E-14  7.515697148847E-15
  5.130323504093E-15  3.487136074250E-15  2.360040132388E-15  1.590280171472E-15
  1.066863368425E-15  7.125276517040E-16  4.737279166952E-16  3.135211614399E-16
  2.065339094817E-16  1.354185639052E-16  8.836957773457E-17  5.739052469602E-17
  3.709071741203E-17  2.385351544102E-17  1.526425781080E-17  9.718720532645E-18
  6.156393544949E-18  3.879723752567E-18  2.432233241920E-18  1.516743271177E-18
  9.407915457706E-19  5.803911071846E-19  3.560943281072E-19  2.172683685922E-19
  1.318209016438E-19  7.952357264237E-20  0.000000000000E+00  0.000000000000E+00
  0.000000000000E+00  0.000000000000E+00  0.000000000000E+00  0.000000000000E+00
  0.000000000000E+00  0.000000000000E+00  0.000000000000E+00  0.000000000000E+00
  0.000000000000E+00
</data>
</radfunc>
</valence-charge>
<pseudocore-charge matching-radius="0.885909667818"
 number-of-continuous-derivatives="4">
<annotation model-charge-form="Teter function with specified parameters" />
<radfunc>
<data npts="290">
  9.483221107223E+01  9.482664779008E+01  9.480948131760E+01  9.478106542881E+01
  9.474155675808E+01  9.468960551805E+01  9.462339176851E+01  9.454756772861E+01
  9.446230712516E+01  9.436287360484E+01  9.425078700005E+01  9.412894690435E+01
  9.398168275126E+01  9.382786482796E+01  9.364639374754E+01  9.346514046283E+01
  9.325640150046E+01  9.305851865986E+01  9.283603675038E+01  9.258596492929E+01
  9.230496675556E+01  9.205541709650E+01  9.178160975595E+01  9.148126695423E+01
  9.115191386158E+01  9.079086514346E+01  9.039521139769E+01  9.007387777337E+01
  8.972989430243E+01  8.936175922004E+01  8.896788575672E+01  8.854659964270E+01
  8.809613695464E+01  8.761464239791E+01  8.710016813193E+01  8.655067326171E+01
  8.596402413663E+01  8.533799561604E+01  8.489762656577E+01  8.443802182115E+01
  8.395845820506E+01  8.345819713743E+01  8.293648561835E+01  8.239255739568E+01
  8.182563433441E+01  8.123492800632E+01  8.061964151923E+01  7.997897160632E+01
  7.931211099650E+01  7.861825108799E+01  7.789658494760E+01  7.714631065894E+01
  7.636663504291E+01  7.555677777413E+01  7.471597591653E+01  7.384348890100E+01
  7.293860396695E+01  7.200064208814E+01  7.102896440146E+01  7.002297915446E+01
  6.898214918427E+01  6.790599993642E+01  6.679412802707E+01  6.564621034593E+01
  6.446201369025E+01  6.324140491144E+01  6.198436154652E+01  6.134220285777E+01
  6.069098289489E+01  6.003073497774E+01  5.936150148856E+01  5.868333424717E+01
  5.799629488914E+01  5.730045524638E+01  5.659589772907E+01  5.588271570804E+01
  5.516101389654E+01  5.443090873021E+01  5.369252874408E+01  5.294601494518E+01
  5.219152117948E+01  5.142921449148E+01  5.065927547500E+01  4.988189861328E+01
  4.909729260671E+01  4.830568068622E+01  4.750730091028E+01  4.670240644339E+01
  4.589126581391E+01  4.507416314874E+01  4.425139838258E+01  4.342328743918E+01
  4.259016238190E+01  4.175237153106E+01  4.091027954509E+01  4.006426746280E+01
  3.921473270383E+01  3.836208902419E+01  3.750676642413E+01  3.664921100505E+01
  3.578988477273E+01  3.492926538349E+01  3.406784583065E+01  3.320613406805E+01
  3.234465256790E+01  3.148393781021E+01  3.062453970095E+01  2.976702091664E+01
  2.891195617289E+01  2.805993141481E+01  2.721154292751E+01  2.636739636486E+01
  2.552810569558E+01  2.469429206544E+01  2.386658257525E+01  2.304560897455E+01
  2.223200627141E+01  2.142641125930E+01  2.062946096256E+01  1.984179100269E+01
  1.906403388818E+01  1.829681723148E+01  1.754076189730E+01  1.679648008731E+01
  1.606457336711E+01  1.534563064205E+01  1.464022608962E+01  1.394891705659E+01
  1.327224193045E+01  1.261071799527E+01  1.196483928301E+01  1.133507443230E+01
  1.072186456767E+01  1.012562121251E+01  9.546724250520E+00  8.985519950503E+00
  8.442319070256E+00  7.917395055822E+00  7.410982352702E+00  6.923274845944E+00
  6.454424446192E+00  6.004539838719E+00  5.573685412318E+00  5.161880384508E+00
  4.769098138955E+00  4.395265790162E+00  4.040263989486E+00  3.703926985228E+00
  3.386042948029E+00  3.086354571017E+00  2.804559952129E+00  2.540313763737E+00
  2.293228712188E+00  2.062877287116E+00  1.848793797425E+00  1.650476687665E+00
  1.467391125253E+00  1.298971845519E+00  1.144626238069E+00  1.003737654390E+00
  8.756689131171E-01  7.597659759119E-01  6.553617636078E-01  5.617800791903E-01
  4.783396013549E-01  4.043579099418E-01  3.391555025123E-01  2.820597598118E-01
  2.324088169024E-01  1.895552964317E-01  1.528698608684E-01  1.217445416440E-01
  9.559580501314E-02  7.386731711929E-02  5.603237421278E-02  4.159596821917E-02
  3.009646284615E-02  2.110686110103E-02  1.423565138325E-02  9.127226118027E-03
  5.461874082776E-03  2.955355003375E-03  1.358072497986E-03  4.538688435077E-04
  5.847214226166E-05  1.763307702595E-05  2.049943626007E-04  5.197410392819E-04
  8.840837284255E-04  1.240629723775E-03  1.549698193620E-03  1.786635722915E-03
  1.939186878490E-03  2.004971429658E-03  1.989115349150E-03  1.902076858492E-03
  1.757701726918E-03  1.571533996478E-03  1.359399549961E-03  1.136270766023E-03
  9.154112518570E-04  7.077906606520E-04  5.217512445770E-04  3.629004062098E-04
  2.341974026555E-04  1.361977886422E-04  6.741635342239E-05  2.476832724678E-05
  4.049531475370E-06  4.188496404569E-07  8.850734184226E-06  2.453117095940E-05
  4.317725478925E-05  6.126787410961E-05  7.618050987573E-05  8.623635965789E-05
  9.066245646974E-05  8.948476757197E-05  8.337011551889E-05  7.343695230240E-05
  6.105545299767E-05  4.765612852943E-05  3.456337344330E-05  2.286637167162E-05
  1.333498757278E-05  6.383141752872E-06  2.077204518976E-06  1.826035441070E-07
  2.385356307824E-07  1.648683204025E-06  3.775309496055E-06  6.025027444625E-06
  7.916731088888E-06  9.125327791124E-06  9.498591971188E-06  9.048197422690E-06
  7.919300288635E-06  6.345527466392E-06  4.597583899530E-06  2.933794989920E-06
  1.559794628811E-06  6.024761034380E-07  1.006052671203E-07  0.000000000000E+00
  0.000000000000E+00  0.000000000000E+00  0.000000000000E+00  0.000000000000E+00
  0.000000000000E+00  0.000000000000E+00  0.000000000000E+00  0.000000000000E+00
  0.000000000000E+00  0.000000000000E+00  0.000000000000E+00  0.000000000000E+00
  0.000000000000E+00  0.000000000000E+00  0.000000000000E+00  0.000000000000E+00
  0.000000000000E+00  0.000000000000E+00  0.000000000000E+00  0.000000000000E+00
  0.000000000000E+00  0.000000000000E+00  0.000000000000E+00  0.000000000000E+00
  0.000000000000E+00  0.000000000000E+00  0.000000000000E+00  0.000000000000E+00
  0.000000000000E+00  0.000000000000E+00  0.000000000000E+00  0.000000000000E+00
  0.000000000000E+00  0.000000000000E+00  0.000000000000E+00  0.000000000000E+00
  0.000000000000E+00  0.000000000000E+00  0.000000000000E+00  0.000000000000E+00
  0.000000000000E+00  0.000000000000E+00  0.000000000000E+00  0.000000000000E+00
  0.000000000000E+00  0.000000000000E+00
</data>
</radfunc>
</pseudocore-charge>
<semilocal-potentials set="scalar_relativistic">
<slps n="5" l="s" rc="2.27326428537" eref="-0.387678188173">
<radfunc>
<data npts="290">
  3.212622218307E+01  3.210871703550E+01  3.205477776919E+01  3.196574283309E+01
  3.184246934025E+01  3.168128383333E+01  3.147733246941E+01  3.124580016553E+01
  3.098799433325E+01  3.069067854623E+01  3.035977111731E+01  3.000506836490E+01
  2.958314663693E+01  2.915019462529E+01  2.864930251142E+01  2.815938948573E+01
  2.760762206921E+01  2.709644221984E+01  2.653506054724E+01  2.592030998659E+01
  2.524922612241E+01  2.467000137858E+01  2.405184809023E+01  2.339381652088E+01
  2.269521939605E+01  2.195567730418E+01  2.117516363748E+01  2.056309679962E+01
  1.992849664795E+01  1.927182345941E+01  1.859369003644E+01  1.789486689272E+01
  1.717628559179E+01  1.643904000451E+01  1.568438528661E+01  1.491373442359E+01
  1.412865224680E+01  1.333084688993E+01  1.279281199446E+01  1.225051309275E+01
  1.170454691256E+01  1.115552946324E+01  1.060409367378E+01  1.005088688955E+01
  9.496568250580E+00  8.941805975902E+00  8.387274580222E+00  7.833652050147E+00
  7.281617008001E+00  6.731845891393E+00  6.185010176449E+00  5.641773671843E+00
  5.102789909535E+00  4.568699656468E+00  4.040128569361E+00  3.517685012375E+00
  3.001958054601E+00  2.493515661428E+00  1.992903090599E+00  1.500641500517E+00
  1.017226775001E+00  5.431285653281E-01  7.878954711407E-02 -3.753751136154E-01
 -8.189780938578E-01 -1.251660058148E+00 -1.673089628426E+00 -1.879488811433E+00
 -2.082963196005E+00 -2.283479116335E+00 -2.481004594735E+00 -2.675509325346E+00
 -2.866964656557E+00 -3.055343572338E+00 -3.240620672692E+00 -3.422772153445E+00
 -3.601775785586E+00 -3.777610894402E+00 -3.950258338622E+00 -4.119700489842E+00
 -4.285921212453E+00 -4.448905844350E+00 -4.608641178688E+00 -4.765115446946E+00
 -4.918318303597E+00 -5.068240812658E+00 -5.214875436430E+00 -5.358216026715E+00
 -5.498257818827E+00 -5.634997428710E+00 -5.768432853451E+00 -5.898563475533E+00
 -6.025390071106E+00 -6.148914822568E+00 -6.269141335804E+00 -6.386074662214E+00
 -6.499721325934E+00 -6.610089356314E+00 -6.717188325893E+00 -6.821029393938E+00
 -6.921625355618E+00 -7.018990696742E+00 -7.113141653965E+00 -7.204096280223E+00
 -7.291874515044E+00 -7.376498259286E+00 -7.457991453676E+00 -7.536380160409E+00
 -7.611692646894E+00 -7.683959470588E+00 -7.753213563709E+00 -7.819490316455E+00
 -7.882827657228E+00 -7.943266128242E+00 -8.000848954771E+00 -8.055622106227E+00
 -8.107634347195E+00 -8.156937276531E+00 -8.203585352603E+00 -8.247635902843E+00
 -8.289149115767E+00 -8.328188013745E+00 -8.364818404883E+00 -8.399108812460E+00
 -8.431130380526E+00 -8.460956754266E+00 -8.488663933932E+00 -8.514330101113E+00
 -8.538035416184E+00 -8.559861785793E+00 -8.579892599208E+00 -8.598212432299E+00
 -8.614906717893E+00 -8.630061381177E+00 -8.643762438802E+00 -8.656095560338E+00
 -8.667145590854E+00 -8.676996033580E+00 -8.685728492023E+00 -8.693422071454E+00
 -8.700152740624E+00 -8.705992655755E+00 -8.711009450496E+00 -8.715265497738E+00
 -8.718817151802E+00 -8.721713982854E+00 -8.723998019186E+00 -8.725703017372E+00
 -8.726853784829E+00 -8.727465583870E+00 -8.727543650259E+00 -8.727082862002E+00
 -8.726067594689E+00 -8.724471797373E+00 -8.722259316562E+00 -8.719384484973E+00