<?xml version="1.0" encoding="UTF-8" ?>
<psml version="1.1" energy_unit="hartree" length_unit="bohr"
 uuid="977e6d40-be6c-11e7-4032-4f664f7fe0df"
 xmlns="http://esl.cecam.org/PSML/ns/1.1">
<provenance creator="ONCVPSP-3.3.0+psml-3.3.0-73 (scalar-relativistic)"
 date="2017-10-31">
<annotation action="semilocal-pseudopotential-generation"
 action-cont="projectors-generation" />
<input-file name="oncvpsp-input">
<![CDATA[# atsym z nc nv iexc psfile
Sn 50 6 5 4 upf
# n l f
1 0 2.0
2 0 2.0
2 1 6.0
3 0 2.0
3 1 6.0
3 2 10.0
4 0 2.0
4 1 6.0
4 2 10.0
5 0 2.0
5 1 2.0
# lmax
2
# l rc ep ncon nbas qcut
0 1.3 0.0 4 8 9.4
1 1.3 0.0 4 8 9.6
2 1.5 0.0 4 8 10.0
# lloc lpopt rc5 dvloc0
4 5 1.3 0.0
# l nproj debl
0 2 1.0
1 2 1.0
2 2 2.0
# icmod fcfact rcfact
3 3.5 1.5
# epsh1 epsh2 depsh
-12.0 12.0 0.02
# rlmax drl
6.0 0.01
 0
]]>
</input-file>
</provenance>
<pseudo-atom-spec atomic-label="Sn" atomic-number="50" z-pseudo="22"
 flavor="Hamann&apos;s oncvpsp" relativity="scalar" spin-dft="no"
 core-corrections="yes">
<annotation pseudo-energy="-214.746846861" />
<exchange-correlation>
<annotation oncvpsp-xc-code="4" oncvpsp-xc-type="GGA -- Perdew-Burke-Ernzerhof" />
<libxc-info number-of-functionals="2">
<functional name="Perdew, Burke &amp; Ernzerhof (GGA)" type="exchange" id="101" />
<functional name="Perdew, Burke &amp; Ernzerhof (GGA)" type="correlation"
 id="130" />
</libxc-info>
</exchange-correlation>
<valence-configuration total-valence-charge="22">
<shell n="4" l="s" occupation="2" />
<shell n="4" l="p" occupation="6" />
<shell n="4" l="d" occupation="10" />
<shell n="5" l="s" occupation="2" />
<shell n="5" l="p" occupation="2" />
</valence-configuration>
</pseudo-atom-spec>
<grid npts="457">
<annotation type="sampled from oncvpsp log grid"
 recipe="r(i:1..N) = r1*exp(a*(i-1)) + r=0; resampled"
 recipe-cont="r1: scale; a: step" scale="0.100000000000E-04"
 step="0.119285708653E-01" delta="0.500000000000E-02" rmax="44.3197745331" />
<grid-data>
  0.000000000000E+00  5.000886690540E-03  1.010874525337E-02  1.516472982503E-02
  2.019142533776E-02  2.532775607628E-02  3.065384203313E-02  3.579575917496E-02
  4.081475699656E-02  4.598565112489E-02  5.119728757278E-02  5.632368393398E-02
  6.196338756004E-02  6.735948224037E-02  7.322549696456E-02  7.865845337823E-02
  8.449450730050E-02  8.968731867555E-02  9.519926665294E-02  1.010499645334E-01
  1.072602309997E-01  1.125021385341E-01  1.180002229791E-01  1.237670039391E-01
  1.298156128636E-01  1.361598229479E-01  1.428140804965E-01  1.480173298599E-01
  1.534101529953E-01  1.589994567820E-01  1.647923997425E-01  1.707964012112E-01
  1.770191508363E-01  1.834686184287E-01  1.901530641691E-01  1.970810491874E-01
  2.042614465274E-01  2.117034525111E-01  2.168148206685E-01  2.220495976987E-01
  2.274107631856E-01  2.329013686519E-01  2.385245392967E-01  2.442834757734E-01
  2.501814560125E-01  2.562218370865E-01  2.624080571211E-01  2.687436372522E-01
  2.752321836300E-01  2.818773894716E-01  2.886830371630E-01  2.956530004123E-01
  3.027912464542E-01  3.101018383086E-01  3.175889370927E-01  3.252568043899E-01
  3.331098046751E-01  3.411524077992E-01  3.493891915331E-01  3.578248441734E-01
  3.664641672112E-01  3.753120780643E-01  3.843736128771E-01  3.936539293864E-01
  4.031583098575E-01  4.128921640907E-01  4.228610325005E-01  4.279353648905E-01
  4.330705892692E-01  4.382674363404E-01  4.435266455765E-01  4.488489653234E-01
  4.542351529073E-01  4.596859747422E-01  4.652022064391E-01  4.707846329164E-01
  4.764340485114E-01  4.821512570935E-01  4.879370721786E-01  4.937923170448E-01
  4.997178248493E-01  5.057144387475E-01  5.117830120125E-01  5.179244081566E-01
  5.241395010545E-01  5.304291750672E-01  5.367943251680E-01  5.432358570700E-01
  5.497546873548E-01  5.563517436031E-01  5.630279645263E-01  5.697843001006E-01
  5.766217117018E-01  5.835411722423E-01  5.905436663092E-01  5.976301903049E-01
  6.048017525885E-01  6.120593736196E-01  6.194040861030E-01  6.268369351363E-01
  6.343589783579E-01  6.419712860982E-01  6.496749415314E-01  6.574710408298E-01
  6.653606933197E-01  6.733450216396E-01  6.814251618992E-01  6.896022638420E-01
  6.978774910081E-01  7.062520209002E-01  7.147270451510E-01  7.233037696928E-01
  7.319834149291E-01  7.407672159083E-01  7.496564224992E-01  7.586522995692E-01
  7.677561271640E-01  7.769692006900E-01  7.862928310983E-01  7.957283450714E-01
  8.052770852123E-01  8.149404102349E-01  8.247196951577E-01  8.346163314996E-01
  8.446317274776E-01  8.547673082073E-01  8.650245159058E-01  8.754048100966E-01
  8.859096678178E-01  8.965405838316E-01  9.072990708376E-01  9.181866596876E-01
  9.292048996039E-01  9.403553583991E-01  9.516396226999E-01  9.630592981723E-01
  9.746160097504E-01  9.863114018674E-01  9.981471386898E-01  1.010124904354E+00
  1.022246403206E+00  1.034513360045E+00  1.046927520365E+00  1.059490650610E+00
  1.072204538417E+00  1.085070992878E+00  1.098091844793E+00  1.111268946930E+00
  1.124604174293E+00  1.138099424385E+00  1.151756617477E+00  1.165577696887E+00
  1.179564629250E+00  1.193719404801E+00  1.208044037658E+00  1.222540566110E+00
  1.237211052904E+00  1.252057585538E+00  1.267082276565E+00  1.282287263884E+00
  1.297674711050E+00  1.313246807583E+00  1.329005769274E+00  1.344953838505E+00
  1.361093284567E+00  1.377426403982E+00  1.393955520830E+00  1.410682987080E+00
  1.427611182925E+00  1.444742517120E+00  1.462079427325E+00  1.479624380453E+00
  1.497379873019E+00  1.515348431495E+00  1.533532612673E+00  1.551935004025E+00
  1.570558224073E+00  1.589404922762E+00  1.608477781835E+00  1.627779515217E+00
  1.647312869400E+00  1.667080623833E+00  1.687085591319E+00  1.707330618414E+00
  1.727818585835E+00  1.748552408865E+00  1.769535037772E+00  1.790769458225E+00
  1.812258691724E+00  1.834005796024E+00  1.856013865577E+00  1.878286031964E+00
  1.900825464347E+00  1.923635369919E+00  1.946718994358E+00  1.970079622291E+00
  1.993720577758E+00  2.017645224691E+00  2.041856967388E+00  2.066359250996E+00
  2.091155562008E+00  2.116249428752E+00  2.141644421897E+00  2.167344154960E+00
  2.193352284820E+00  2.219672512237E+00  2.246308582384E+00  2.273264285373E+00
  2.300543456797E+00  2.328149978279E+00  2.356087778018E+00  2.384360831355E+00
  2.412973161331E+00  2.441928839267E+00  2.471231985338E+00  2.500886769162E+00
  2.530897410392E+00  2.561268179317E+00  2.592003397468E+00  2.623107438238E+00
  2.654584727497E+00  2.686439744227E+00  2.718677021158E+00  2.751301145412E+00
  2.784316759156E+00  2.817728560266E+00  2.851541302990E+00  2.885759798625E+00
  2.920388916209E+00  2.955433583203E+00  2.990898786202E+00  3.026789571636E+00
  3.063111046496E+00  3.099868379054E+00  3.137066799603E+00  3.174711601198E+00
  3.212808140412E+00  3.251361838097E+00  3.290378180154E+00  3.329862718316E+00
  3.369821070936E+00  3.410258923787E+00  3.451182030873E+00  3.492596215243E+00
  3.534507369826E+00  3.576921458264E+00  3.619844515763E+00  3.663282649952E+00
  3.707242041752E+00  3.751728946253E+00  3.796749693608E+00  3.842310689931E+00
  3.888418418210E+00  3.935079439229E+00  3.982300392499E+00  4.030087997209E+00
  4.078449053176E+00  4.127390441814E+00  4.176919127116E+00  4.227042156641E+00
  4.277766662521E+00  4.329099862471E+00  4.381049060821E+00  4.433621649551E+00
  4.486825109345E+00  4.540667010657E+00  4.595155014785E+00  4.650296874963E+00
  4.706100437462E+00  4.762573642712E+00  4.819724526424E+00  4.877561220741E+00
  4.936091955390E+00  4.995325058855E+00  5.055268959561E+00  5.115932187076E+00
  5.177323373321E+00  5.239451253801E+00  5.302324668846E+00  5.365952564873E+00
  5.430343995651E+00  5.495508123599E+00  5.561454221082E+00  5.628191671735E+00
  5.695729971796E+00  5.764078731457E+00  5.833247676235E+00  5.903246648350E+00
  5.974085608130E+00  6.045774635427E+00  6.118323931053E+00  6.191743818225E+00
  6.266044744044E+00  6.341237280972E+00  6.417332128344E+00  6.494340113884E+00
  6.572272195251E+00  6.651139461594E+00  6.730953135133E+00  6.811724572755E+00
  6.893465267628E+00  6.976186850839E+00  7.059901093049E+00  7.144619906166E+00
  7.230355345040E+00  7.317119609180E+00  7.404925044490E+00  7.493784145024E+00
  7.583709554765E+00  7.674714069422E+00  7.766810638255E+00  7.860012365914E+00
  7.954332514305E+00  8.049784504477E+00  8.146381918530E+00  8.244138501553E+00
  8.343068163571E+00  8.443184981534E+00  8.544503201313E+00  8.647037239728E+00
  8.750801686605E+00  8.855811306844E+00  8.962081042526E+00  9.069626015037E+00
  9.178461527217E+00  9.288603065544E+00  9.400066302330E+00  9.512867097958E+00
  9.627021503134E+00  9.742545761171E+00  9.859456310305E+00  9.977769786029E+00
  1.009750302346E+01  1.021867305974E+01  1.034129713646E+01  1.046539270210E+01
  1.059097741452E+01  1.071806914350E+01  1.084668597322E+01  1.097684620490E+01
  1.110856835936E+01  1.124187117967E+01  1.137677363382E+01  1.151329491743E+01
  1.165145445644E+01  1.179127190992E+01  1.193276717284E+01  1.207596037891E+01
  1.222087190346E+01  1.236752236630E+01  1.251593263469E+01  1.266612382631E+01
  1.281811731223E+01  1.297193471997E+01  1.312759793661E+01  1.328512911185E+01
  1.344455066119E+01  1.360588526913E+01  1.376915589236E+01  1.393438576307E+01
  1.410159839222E+01  1.427081757293E+01  1.444206738380E+01  1.461537219241E+01
  1.479075665872E+01  1.496824573862E+01  1.514786468749E+01  1.532963906374E+01
  1.551359473250E+01  1.569975786929E+01  1.588815496372E+01  1.607881282329E+01
  1.627175857717E+01  1.646701968009E+01  1.666462391625E+01  1.686459940325E+01
  1.706697459609E+01  1.727177829124E+01  1.747903963074E+01  1.768878810631E+01
  1.790105356358E+01  1.811586620634E+01  1.833325660082E+01  1.855325568003E+01
  1.877589474819E+01  1.900120548517E+01  1.922921995099E+01  1.945997059040E+01
  1.969349023749E+01  1.992981212034E+01  2.016896986578E+01  2.041099750417E+01
  2.065592947422E+01  2.090380062791E+01  2.115464623545E+01  2.140850199027E+01
  2.166540401416E+01  2.192538886233E+01  2.218849352867E+01  2.245475545102E+01
  2.272421251643E+01  2.299690306663E+01  2.327286590343E+01  2.355214029427E+01
  2.383476597780E+01  2.412078316953E+01  2.441023256757E+01  2.470315535838E+01
  2.499959322268E+01  2.529958834135E+01  2.560318340145E+01  2.591042160226E+01
  2.622134666149E+01  2.653600282143E+01  2.685443485529E+01  2.717668807355E+01
  2.750280833043E+01  2.783284203040E+01  2.816683613476E+01  2.850483816838E+01
  2.884689622640E+01  2.919305898112E+01  2.954337568889E+01  2.989789619716E+01
  3.025667095152E+01  3.061975100294E+01  3.098718801498E+01  3.135903427116E+01
  3.173534268241E+01  3.211616679460E+01  3.250156079613E+01  3.289157952569E+01
  3.328627847999E+01  3.368571382175E+01  3.408994238762E+01  3.449902169627E+01
  3.491300995662E+01  3.533196607610E+01  3.575594966902E+01  3.618502106504E+01
  3.661924131782E+01  3.705867221364E+01  3.750337628020E+01  3.795341679556E+01
  3.840885779711E+01  3.886976409068E+01  3.933620125976E+01  3.980823567488E+01
  4.028593450298E+01  4.076936571702E+01  4.125859810562E+01  4.175370128289E+01
  4.225474569828E+01  4.276180264666E+01  4.327494427842E+01  4.379424360976E+01
  4.431977453308E+01
</grid-data>
</grid>
<valence-charge total-charge="22" is-unscreening-charge="yes"
 rescaled-to-z-pseudo="no">
<radfunc>
<data npts="457">
  5.160130841103E+00  5.164557088010E+00  5.178217398188E+00  5.200837370612E+00
  5.232303857676E+00  5.273708941234E+00  5.326528422712E+00  5.387078787355E+00
  5.455246812294E+00  5.534855307067E+00  5.624733582811E+00  5.722599047066E+00
  5.841114640900E+00  5.965168979704E+00  6.111868493724E+00  6.258757237113E+00
  6.428365740657E+00  6.589586037759E+00  6.771341901560E+00  6.976249410986E+00
  7.207253636692E+00  7.413059279150E+00  7.639561430006E+00  7.888824316117E+00
  8.163108793891E+00  8.464887399439E+00  8.796859203525E+00  9.067411339674E+00
  9.357928666915E+00  9.669826959030E+00  1.000460646295E+01  1.036385287087E+01
  1.074923715628E+01  1.116251394455E+01  1.160551802191E+01  1.208015851099E+01
  1.258841015466E+01  1.313230105358E+01  1.351571337434E+01  1.391649937100E+01
  1.433527521433E+01  1.477265252342E+01  1.522923357248E+01  1.570560575129E+01
  1.620233520201E+01  1.671995955160E+01  1.725897965682E+01  1.781985027687E+01
  1.840296958924E+01  1.900866746589E+01  1.963719243159E+01  2.028869723339E+01
  2.096322296103E+01  2.166068167349E+01  2.238083750658E+01  2.312328626289E+01
  2.388743351750E+01  2.467247131311E+01  2.547735356672E+01  2.630077036707E+01
  2.714112140953E+01  2.799648889271E+01  2.886461028853E+01  2.974285149632E+01
  3.062818099932E+01  3.151714575835E+01  3.240584970089E+01  3.284876069776E+01
  3.328993579022E+01  3.372875614719E+01  3.416457278601E+01  3.459670650309E+01
  3.502444792892E+01  3.544705771876E+01  3.586376689070E+01  3.627377732282E+01
  3.667626242134E+01  3.707036797177E+01  3.745521318469E+01  3.782989194778E+01
  3.819347429533E+01  3.854500810582E+01  3.888352103778E+01  3.920802271285E+01
  3.951750715449E+01  3.981095548914E+01  4.008733891540E+01  4.034562194521E+01
  4.058476591899E+01  4.080373279478E+01  4.100148920907E+01  4.117701080434E+01
  4.132928681573E+01  4.145732490621E+01  4.156015623628E+01  4.163684075116E+01
  4.168647266440E+01  4.170818611361E+01  4.170116095976E+01  4.166462869792E+01
  4.159787844305E+01  4.150026295091E+01  4.137120462983E+01  4.121020149585E+01
  4.101683301979E+01  4.079076581192E+01  4.053175908667E+01  4.023966984775E+01
  3.991445773165E+01  3.955618944653E+01  3.916504274264E+01  3.874130985040E+01
  3.828540032356E+01  3.779784322617E+01  3.727928860519E+01  3.673050819442E+01
  3.615239529985E+01  3.554596382290E+01  3.491234638449E+01  3.425279152131E+01
  3.356865993407E+01  3.286141977801E+01  3.213264099602E+01  3.138398870664E+01
  3.061721567087E+01  2.983415387420E+01  2.903670527283E+01  2.822683176565E+01
  2.740654446583E+01  2.657789235774E+01  2.574295043613E+01  2.490380743467E+01
  2.406255325990E+01  2.322126625434E+01  2.238200041825E+01  2.154677272384E+01
  2.071755065778E+01  1.989624012798E+01  1.908467386853E+01  1.828460047254E+01
  1.749767417612E+01  1.672544550871E+01  1.596935291420E+01  1.523071543581E+01
  1.451072654377E+01  1.381044917033E+01  1.313081200088E+01  1.247260705353E+01
  1.183648856268E+01  1.122297316560E+01  1.063244137401E+01  1.006514029695E+01
  9.521187565566E+00  9.000576396155E+00  8.503181714343E+00  8.028767251161E+00
  7.576993510949E+00  7.147426501579E+00  6.739547109469E+00  6.352760995333E+00
  5.986408881550E+00  5.639777098504E+00  5.312109617515E+00  5.002625240806E+00
  4.710536953910E+00  4.435058491361E+00  4.175410660132E+00  3.930826727576E+00
  3.700557189785E+00  3.483873747922E+00  3.280072477510E+00  3.088476162720E+00
  2.908435785019E+00  2.739331172038E+00  2.580570189213E+00  2.431584886147E+00
  2.291826622650E+00  2.160766820473E+00  2.037897355593E+00  1.922730889530E+00
  1.814801051241E+00  1.713662483580E+00  1.618890767928E+00  1.530082240065E+00
  1.446853709887E+00  1.368842096910E+00  1.295703992923E+00  1.227115162428E+00
  1.162769990867E+00  1.102380889855E+00  1.045677667980E+00  9.924068749755E-01
  9.423311263688E-01  8.952284150253E-01  8.508914153360E-01  8.091267851629E-01
  7.697544700543E-01  7.326070136884E-01  6.975288779790E-01  6.643757758064E-01
  6.330140188999E-01  6.033198830049E-01  5.751789921133E-01  5.484857232103E-01
  5.231426327048E-01  4.990599054448E-01  4.761548269853E-01  4.543512795611E-01
  4.335792620230E-01  4.137744338238E-01  3.948776829814E-01  3.768347178093E-01
  3.595956820778E-01  3.431147931627E-01  3.273500026423E-01  3.122626787226E-01
  2.978173098041E-01  2.839812284473E-01  2.707243549489E-01  2.580189597102E-01
  2.458394435516E-01  2.341621351161E-01  2.229651044938E-01  2.122279922016E-01
  2.019318526581E-01  1.920590113019E-01  1.825929345210E-01  1.735181115776E-01
  1.648199477353E-01  1.564846678217E-01  1.484992294856E-01  1.408512454393E-01
  1.335289139910E-01  1.265209572411E-01  1.198165662975E-01  1.134053529327E-01
  1.072773071229E-01  1.014227599430E-01  9.583235132277E-02  9.049700219754E-02
  8.540789062097E-02  8.055643143136E-02  7.593425909487E-02  7.153321337423E-02
  6.734532749831E-02  6.336281853279E-02  5.957807967599E-02  5.598367422647E-02
  5.257233099081E-02  4.933694091957E-02  4.627055477914E-02  4.336638168425E-02
  4.061778833303E-02  3.801829880164E-02  3.556159477018E-02  3.324151606470E-02
  3.105206141103E-02  2.898738931218E-02  2.704181896652E-02  2.520983115665E-02
  2.348606904784E-02  2.186533884330E-02  2.034261025192E-02  1.891301673153E-02
  1.757185547822E-02  1.631458713849E-02  1.513683522762E-02  1.403438524330E-02
  1.300318346897E-02  1.203933546616E-02  1.113910425972E-02  1.029890822372E-02
  9.515318679527E-03  8.785057220330E-03  8.104992779462E-03  7.472138461579E-03
  6.883648157803E-03  6.336812967044E-03  5.829057446694E-03  5.357935716347E-03
  4.921127438361E-03  4.516433698934E-03  4.141772812891E-03  3.795176074716E-03
  3.474783477431E-03  3.178839419875E-03  2.905688421682E-03  2.653770863959E-03
  2.421618772231E-03  2.207851656753E-03  2.011172423836E-03  1.830363370268E-03
  1.664282271491E-03  1.511858572681E-03  1.372089690494E-03  1.244037431840E-03
  1.126824534772E-03  1.019631335307E-03  9.216925628641E-04  8.322942658788E-04
  7.507708682069E-04  6.765023559678E-04  6.089115936889E-04  5.474617678690E-04
  4.916539554403E-04  4.410248140664E-04  3.951443907541E-04  3.536140448927E-04
  3.160644815489E-04  2.821538906492E-04  2.515661875481E-04  2.240093504294E-04
  1.992138499861E-04  1.769311668828E-04  1.569323926049E-04  1.390069094386E-04
  1.229611454883E-04  1.086174008283E-04  9.581274108282E-05  8.439795493499E-05
  7.423657227134E-05  6.520393987125E-05  5.718635174363E-05  5.008023139596E-05
  4.379136348979E-05  3.823417249115E-05  3.333104606332E-05  2.901170107344E-05
  2.521259019383E-05  2.187634717459E-05  1.895126894758E-05  1.639083279431E-05
  1.415324687396E-05  1.220103246300E-05  1.050063630764E-05  9.022071535041E-06
  7.738585610792E-06  6.626353869526E-06  5.664197183660E-06  4.833322373340E-06
  4.117083998914E-06  3.500766216556E-06  2.971383418128E-06  2.517498418363E-06
  2.129056995956E-06  1.797237640227E-06  1.514315401516E-06  1.273538791214E-06
  1.069018726129E-06  8.956285614169E-07  7.489143063192E-07  6.250141670839E-07
  5.205866114827E-07  4.327461988738E-07  3.590064685827E-07  2.972292271908E-07
  2.455796218913E-07  2.024864321897E-07  1.666070557057E-07  1.367967055182E-07
  1.120813762730E-07  9.163417404070E-08  7.475464061489E-08  6.085073653369E-08
  4.942317858560E-08  4.005185692392E-08  3.238408419844E-08  2.612445435994E-08
  2.102611206854E-08  1.688325499092E-08  1.352471084064E-08  1.080844880177E-08
  8.616901166452E-09  6.852985643337E-09  5.436731987320E-09  4.302428452508E-09
  3.396214181524E-09  2.674053111760E-09  2.100033398074E-09  1.644943812696E-09
  1.285085173610E-09  1.001280654914E-09  7.780539240044E-10  6.029485034569E-10
  4.659656374578E-10  3.591013158097E-10  2.759660300922E-10  2.114733587404E-10
  1.615856481573E-10  1.231069185234E-10  9.351471446509E-11  7.082397694125E-11
  5.347716462943E-11  4.025582831088E-11  3.020966466298E-11  2.259976797194E-11
  1.685337844171E-11  1.252791048709E-11  9.282448008163E-12  6.855228590864E-12
  5.045915603593E-12  3.701685497715E-12  2.706345182293E-12  1.971847878177E-12
  1.431701099616E-12  1.035862216866E-12  7.467995139392E-13  5.364632086416E-13
  3.839644226483E-13  2.738029728078E-13  1.945190892432E-13  1.376713940993E-13
  9.706504976345E-14  6.817101617456E-14  4.769074920876E-14  3.323116276304E-14
  2.306286273583E-14  1.594102294980E-14  1.097319781640E-14  7.522163492837E-15
  5.134794799647E-15  3.490214663881E-15  2.362150663814E-15  1.591720730011E-15
  1.067842286311E-15  7.131898907660E-16  4.741738943848E-16  3.138201245662E-16
  2.067333917633E-16  1.355510435008E-16  8.845714203564E-17  5.744812353845E-17
  3.712842110038E-17  2.387807450885E-17  1.528017520413E-17  9.728985038760E-18
  6.162978973339E-18  3.883926982833E-18  2.434901994963E-18  1.518428784295E-18
  9.418503763901E-19  5.810526577125E-19  3.565053951800E-19  2.175223755970E-19
  1.319769758866E-19  7.961892618017E-20  0.000000000000E+00  0.000000000000E+00
  0.000000000000E+00  0.000000000000E+00  0.000000000000E+00  0.000000000000E+00
  0.000000000000E+00  0.000000000000E+00  0.000000000000E+00  0.000000000000E+00
  0.000000000000E+00
</data>
</radfunc>
</valence-charge>
<pseudocore-charge matching-radius="0.543235857070"
 number-of-continuous-derivatives="4">
<annotation model-charge-form="Teter function with specified parameters" />
<radfunc>
<data npts="290">
  1.429211743490E+02  1.429041675877E+02  1.428516963316E+02  1.427648600755E+02
  1.426441669935E+02  1.424855374912E+02  1.422834798908E+02  1.420522628066E+02
  1.417924832517E+02  1.414898056451E+02  1.411489801022E+02  1.407789396272E+02
  1.403322996196E+02  1.398665024291E+02  1.393179109152E+02  1.387710002583E+02
  1.381424211712E+02  1.375477854126E+02  1.368806855398E+02  1.361326989736E+02
  1.352945336807E+02  1.345522367824E+02  1.337400184470E+02  1.328517753552E+02
  1.318809726799E+02  1.308206356912E+02  1.296633469005E+02  1.287270460089E+02
  1.277283273431E+02  1.266635893876E+02  1.255291090136E+02  1.243210519355E+02
  1.230354862868E+02  1.216683997663E+02  1.202157208434E+02  1.186733445464E+02
  1.170371633906E+02  1.153031040287E+02  1.140907095918E+02  1.128318800445E+02
  1.115254927340E+02  1.101704654129E+02  1.087657650392E+02  1.073104173291E+02
  1.058035170872E+02  1.042442393356E+02  1.026318512537E+02  1.009657249378E+02
  9.924535097649E+01  9.747035282969E+01  9.564050198659E+01  9.375573386260E+01
  9.181616437951E+01  8.982210715379E+01  8.777409119700E+01  8.567287900813E+01
  8.351948491135E+01  8.131519346381E+01  7.906157772623E+01  7.676051715521E+01
  7.441421484043E+01  7.202521377148E+01  6.959641178063E+01  6.713107476788E+01
  6.463284777553E+01  6.210576344182E+01  5.955424732804E+01  5.827081827511E+01
  5.698311958297E+01  5.569181500643E+01  5.439759238426E+01  5.310116328766E+01
  5.180326258004E+01  5.050464788375E+01  4.920609894926E+01  4.790841692264E+01
  4.661242350714E+01  4.531896001512E+01  4.402888630666E+01  4.274307961142E+01
  4.146243323103E+01  4.018785511924E+01  3.892026633784E+01  3.766059938678E+01
  3.640979640745E+01  3.516880725897E+01  3.393858746758E+01  3.272009605057E+01
  3.151429321656E+01  3.032213794520E+01  2.914458544999E+01  2.798258452929E+01
  2.683707481150E+01  2.570898390151E+01  2.459922443683E+01  2.350869106312E+01
  2.243825733977E+01  2.138877258808E+01  2.036105869527E+01  1.935590688957E+01
  1.837407450230E+01  1.741628173485E+01  1.648320844912E+01  1.557549100185E+01
  1.469371914384E+01  1.383843300670E+01  1.301012020023E+01  1.220921304483E+01
  1.143608596366E+01  1.069105306004E+01  9.974365905599E+00  9.286211565104E+00
  8.626710883313E+00  7.995917059033E+00  7.393814530638E+00  6.820318196228E+00
  6.275272990194E+00  5.758453836131E+00  5.269565993891E+00  4.808245816002E+00
  4.374061925760E+00  3.966516825998E+00  3.585048943848E+00  3.229035112786E+00
  2.897793488904E+00  2.590586893664E+00  2.306626570534E+00  2.045076337721E+00
  1.805057114027E+00  1.585651789453E+00  1.385910406885E+00  1.204855615931E+00
  1.041488354890E+00  8.947937120887E-01  7.637469133809E-01  6.473193787284E-01
  5.444847874727E-01  4.542250893336E-01  3.755363964123E-01  3.074346906431E-01
  2.489612813162E-01  1.991879485584E-01  1.572217110718E-01  1.222091600294E-01
  9.334030582213E-02  6.985189034536E-02  5.103012464097E-02  3.621281992433E-02
  2.479088919682E-02  1.620920664412E-02  9.966822668376E-03  5.616543491838E-03
  2.763895563485E-03  1.065506235967E-03  2.269430753794E-04  6.442593587056E-08
  1.799431760368E-04  6.014337670269E-04  1.135459072544E-03  1.685098602829E-03
  2.181562341338E-03  2.580135236711E-03  2.856175848384E-03  3.001248845198E-03
  3.019465027137E-03  2.924094406632E-03  2.734507857965E-03  2.473491213829E-03
  2.164962826577E-03  1.832111954774E-03  1.495961372765E-03  1.174343856415E-03
  8.812692092016E-04  6.266467852052E-04  4.163185271763E-04  2.523497919639E-04
  1.335200150535E-04  5.595279027272E-05  1.382529749050E-05  1.001438622731E-07
  7.228387546660E-06  2.778043706067E-05  5.497118404530E-05  8.305654442674E-05
  1.075898901905E-04  1.255379538155E-04  1.352659929622E-04  1.364106857316E-04
  1.296658632432E-04  1.165103998174E-04  9.890917488214E-05  7.901699829838E-05
  5.891196082228E-05  4.037923568953E-05  2.475948075570E-05  1.286835509374E-05
  4.986008498989E-06  9.084551057493E-07  4.714994594715E-08  1.559349342962E-06
  4.490251641876E-06  7.908548353995E-06  1.101968732027E-05  1.324545218869E-05
  1.426380781358E-05  1.400864761368E-05  1.263437755940E-05  1.045451837666E-05
  7.866191176104E-06  5.273182802194E-06  3.019240437353E-06  1.340564309325E-06
  3.426317155762E-07  2.138103391190E-09  0.000000000000E+00  0.000000000000E+00
  0.000000000000E+00  0.000000000000E+00  0.000000000000E+00  0.000000000000E+00
  0.000000000000E+00  0.000000000000E+00  0.000000000000E+00  0.000000000000E+00
  0.000000000000E+00  0.000000000000E+00  0.000000000000E+00  0.000000000000E+00
  0.000000000000E+00  0.000000000000E+00  0.000000000000E+00  0.000000000000E+00
  0.000000000000E+00  0.000000000000E+00  0.000000000000E+00  0.000000000000E+00
  0.000000000000E+00  0.000000000000E+00  0.000000000000E+00  0.000000000000E+00
  0.000000000000E+00  0.000000000000E+00  0.000000000000E+00  0.000000000000E+00
  0.000000000000E+00  0.000000000000E+00  0.000000000000E+00  0.000000000000E+00
  0.000000000000E+00  0.000000000000E+00  0.000000000000E+00  0.000000000000E+00
  0.000000000000E+00  0.000000000000E+00  0.000000000000E+00  0.000000000000E+00
  0.000000000000E+00  0.000000000000E+00  0.000000000000E+00  0.000000000000E+00
  0.000000000000E+00  0.000000000000E+00  0.000000000000E+00  0.000000000000E+00
  0.000000000000E+00  0.000000000000E+00  0.000000000000E+00  0.000000000000E+00
  0.000000000000E+00  0.000000000000E+00  0.000000000000E+00  0.000000000000E+00
  0.000000000000E+00  0.000000000000E+00  0.000000000000E+00  0.000000000000E+00
  0.000000000000E+00  0.000000000000E+00  0.000000000000E+00  0.000000000000E+00
  0.000000000000E+00  0.000000000000E+00  0.000000000000E+00  0.000000000000E+00
  0.000000000000E+00  0.000000000000E+00  0.000000000000E+00  0.000000000000E+00
  0.000000000000E+00  0.000000000000E+00
</data>
</radfunc>
</pseudocore-charge>
<semilocal-potentials set="scalar_relativistic">
<slps n="4" l="s" rc="1.31324680758" eref="-4.92185127550">
<radfunc>
<data npts="290">
 -1.830968283724E+01 -1.831204161146E+01 -1.831931713025E+01 -1.833135086234E+01
 -1.834806251507E+01 -1.837000236091E+01 -1.839790823194E+01 -1.842978576506E+01
 -1.846553064231E+01 -1.850708427952E+01 -1.855375452772E+01 -1.860428109006E+01
 -1.866506762354E+01 -1.872823025572E+01 -1.880231863681E+01 -1.887585724926E+01
 -1.895998123143E+01 -1.903917489444E+01 -1.912757338631E+01 -1.922613293266E+01
 -1.933587968365E+01 -1.943246439658E+01 -1.953749585786E+01 -1.965158500726E+01
 -1.977536140893E+01 -1.990946815357E+01 -2.005455532951E+01 -2.017096730204E+01
 -2.029419118520E+01 -2.042449087751E+01 -2.056212082225E+01 -2.070732241443E+01
 -2.086031997301E+01 -2.102131626154E+01 -2.119048754461E+01 -2.136797817453E+01
 -2.155389470944E+01 -2.174829957322E+01 -2.188262654808E+01 -2.202072179675E+01
 -2.216256223485E+01 -2.230811130467E+01 -2.245731793329E+01 -2.261011546960E+01
 -2.276642060466E+01 -2.292613228069E+01 -2.308913059434E+01 -2.325527570032E+01
 -2.342440672205E+01 -2.359634067625E+01 -2.377087141893E+01 -2.394776862042E+01
 -2.412677677749E+01 -2.430761427071E+01 -2.448997247560E+01 -2.467351493594E+01
 -2.485787660810E+01 -2.504266318482E+01 -2.522745050742E+01 -2.541178407488E+01
 -2.559517865872E+01 -2.577711803227E+01 -2.595705482309E+01 -2.613441049758E+01
 -2.630857548677E+01 -2.647890946310E+01 -2.664474177808E+01 -2.672575209041E+01
 -2.680537207223E+01 -2.688350966653E+01 -2.696007106939E+01 -2.703496076587E+01
 -2.710808156937E+01 -2.717933466462E+01 -2.724861965449E+01 -2.731583461065E+01
 -2.738087612839E+01 -2.744363938582E+01 -2.750401820742E+01 -2.756190513244E+01
 -2.761719148819E+01 -2.766976746844E+01 -2.771952221729E+01 -2.776634391862E+01
 -2.781011989143E+01 -2.785073669124E+01 -2.788808021789E+01 -2.792203582981E+01
 -2.795248846506E+01 -2.797932276932E+01 -2.800242323087E+01 -2.802167432284E+01
 -2.803696065253E+01 -2.804816711819E+01 -2.805517907274E+01 -2.805788249481E+01
 -2.805616416649E+01 -2.804991185779E+01 -2.803901451742E+01 -2.802336246937E+01
 -2.800284761495E+01 -2.797736363964E+01 -2.794680622412E+01 -2.791107325884E+01
 -2.787006506140E+01 -2.782368459604E+01 -2.777183769446E+01 -2.771443327733E+01
 -2.765138357579E+01 -2.758260435242E+01 -2.750801512127E+01 -2.742753936659E+01
 -2.734110476010E+01 -2.724864337711E+01 -2.715009191153E+01 -2.704539189065E+01
 -2.693448989043E+01 -2.681733775282E+01 -2.669389280649E+01 -2.656411809344E+01
 -2.642798260385E+01 -2.628546152261E+01 -2.613653649116E+01 -2.598119588950E+01
 -2.581943514352E+01 -2.565125706437E+01 -2.547667222715E+01 -2.529569939802E+01
 -2.510836601979E+01 -2.491470876822E+01 -2.471477419288E+01 -2.450861945863E+01
 -2.429631320630E+01 -2.407793655378E+01 -2.385358426155E+01 -2.362336609007E+01
 -2.338740837963E+01 -2.314585588688E+01 -2.289887391568E+01 -2.264665078362E+01
 -2.238940066855E+01 -2.212736688227E+01 -2.186082562057E+01 -2.159009023936E+01
 -2.131551610581E+01 -2.103750607016E+01 -2.075651659780E+01 -2.047306459091E+01
 -2.018773491478E+01 -1.990118862329E+01 -1.961417185125E+01 -1.932752530703E+01