<?xml version="1.0" encoding="UTF-8" ?>
<psml version="1.1" energy_unit="hartree" length_unit="bohr"
 uuid="caed23e0-be41-11e7-4603-0bd897f88bea"
 xmlns="http://esl.cecam.org/PSML/ns/1.1">
<provenance creator="ONCVPSP-3.3.0+psml-3.3.0-73 (scalar-relativistic)"
 date="2017-10-31">
<annotation action="semilocal-pseudopotential-generation"
 action-cont="projectors-generation" />
<input-file name="oncvpsp-input">
<![CDATA[# atsym z nc nv iexc psfile
Ti 22 3 4 4 upf
# n l f
1 0 2.0
2 0 2.0
2 1 6.0
3 0 2.0
3 1 6.0
3 2 2.0
4 0 2.0
# lmax
2
# l rc ep ncon nbas qcut
0 1.35 0.0 4 8 8.6
1 1.3 0.0 4 8 9.0
2 1.65 0.0 4 8 9.0
# lloc lpopt rc5 dvloc0
4 5 1.3 0.0
# l nproj debl
0 2 1.0
1 2 2.0
2 2 1.5
# icmod fcfact
3 2.5 1.40
# epsh1 epsh2 depsh
-12.0 12.0 0.02
# rlmax drl
6.0 0.01
 0
]]>
</input-file>
</provenance>
<pseudo-atom-spec atomic-label="Ti" atomic-number="22" z-pseudo="12"
 flavor="Hamann&apos;s oncvpsp" relativity="scalar" spin-dft="no"
 core-corrections="yes">
<annotation pseudo-energy="-58.0670714844" />
<exchange-correlation>
<annotation oncvpsp-xc-code="4" oncvpsp-xc-type="GGA -- Perdew-Burke-Ernzerhof" />
<libxc-info number-of-functionals="2">
<functional name="Perdew, Burke &amp; Ernzerhof (GGA)" type="exchange" id="101" />
<functional name="Perdew, Burke &amp; Ernzerhof (GGA)" type="correlation"
 id="130" />
</libxc-info>
</exchange-correlation>
<valence-configuration total-valence-charge="12">
<shell n="3" l="s" occupation="2" />
<shell n="3" l="p" occupation="6" />
<shell n="3" l="d" occupation="2" />
<shell n="4" l="s" occupation="2" />
</valence-configuration>
</pseudo-atom-spec>
<grid npts="457">
<annotation type="sampled from oncvpsp log grid"
 recipe="r(i:1..N) = r1*exp(a*(i-1)) + r=0; resampled"
 recipe-cont="r1: scale; a: step" scale="0.227272727273E-04"
 step="0.119285708653E-01" delta="0.500000000000E-02" rmax="44.2272058873" />
<grid-data>
  0.000000000000E+00  5.050326870634E-03  1.008763158867E-02  1.513305596120E-02
  2.014925244947E-02  2.527485517356E-02  3.058981678310E-02  3.572099424244E-02
  4.072950911740E-02  4.588960304035E-02  5.109035418629E-02  5.620604328253E-02
  6.183396752268E-02  6.721879163176E-02  7.307255428460E-02  7.849416313563E-02
  8.431802756430E-02  8.949999295644E-02  9.500042838519E-02  1.008389061859E-01
  1.070362015583E-01  1.122671605650E-01  1.177537614174E-01  1.235084975710E-01
  1.295444730481E-01  1.358754322768E-01  1.425157913881E-01  1.477081729672E-01
  1.530897323645E-01  1.586673620330E-01  1.644482055438E-01  1.704396667347E-01
  1.766494191929E-01  1.830854160832E-01  1.897559003335E-01  1.966694151926E-01
  2.038348151717E-01  2.112612773846E-01  2.163619696658E-01  2.215858130614E-01
  2.269357809319E-01  2.324149184268E-01  2.380263442172E-01  2.437732522720E-01
  2.496589136749E-01  2.556866784866E-01  2.618599776520E-01  2.681823249525E-01
  2.746573190061E-01  2.812886453162E-01  2.880800783687E-01  2.950354837808E-01
  3.021588205013E-01  3.094541430634E-01  3.169256038936E-01  3.245774556740E-01
  3.324140537638E-01  3.404398586778E-01  3.486594386257E-01  3.570774721119E-01
  3.656987505986E-01  3.745281812330E-01  3.835707896407E-01  3.928317227858E-01
  4.023162519008E-01  4.120297754867E-01  4.219778223860E-01  4.270415562546E-01
  4.321660549297E-01  4.373520475889E-01  4.426002721599E-01  4.479114754258E-01
  4.532864131309E-01  4.587258500885E-01  4.642305602896E-01  4.698013270131E-01
  4.754389429372E-01  4.811442102525E-01  4.869179407755E-01  4.927609560648E-01
  4.986740875376E-01  5.046581765880E-01  5.107140747071E-01  5.168426436036E-01
  5.230447553268E-01  5.293212923907E-01  5.356731478994E-01  5.421012256742E-01
  5.486064403823E-01  5.551897176669E-01  5.618519942789E-01  5.685942182102E-01
  5.754173488288E-01  5.823223570147E-01  5.893102252989E-01  5.963819480025E-01
  6.035385313785E-01  6.107809937550E-01  6.181103656801E-01  6.255276900683E-01
  6.330340223491E-01  6.406304306173E-01  6.483179957847E-01  6.560978117341E-01
  6.639709854749E-01  6.719386373006E-01  6.800019009482E-01  6.881619237596E-01
  6.964198668447E-01  7.047769052468E-01  7.132342281098E-01  7.217930388471E-01
  7.304545553133E-01  7.392200099770E-01  7.480906500968E-01  7.570677378979E-01
  7.661525507527E-01  7.753463813617E-01  7.846505379381E-01  7.940663443933E-01
  8.035951405261E-01  8.132382822124E-01  8.229971415989E-01  8.328731072981E-01
  8.428675845857E-01  8.529819956007E-01  8.632177795479E-01  8.735763929025E-01
  8.840593096173E-01  8.946680213327E-01  9.054040375887E-01  9.162688860398E-01
  9.272641126723E-01  9.383912820243E-01  9.496519774086E-01  9.610478011375E-01
  9.725803747512E-01  9.842513392482E-01  9.960623553192E-01  1.008015103583E+00
  1.020111284826E+00  1.032352620244E+00  1.044740851687E+00  1.057277741907E+00
  1.069965074810E+00  1.082804655708E+00  1.095798311576E+00  1.108947891315E+00
  1.122255266011E+00  1.135722329203E+00  1.149350997153E+00  1.163143209119E+00
  1.177100927629E+00  1.191226138760E+00  1.205520852425E+00  1.219987102654E+00
  1.234626947886E+00  1.249442471261E+00  1.264435780916E+00  1.279609010287E+00
  1.294964318411E+00  1.310503890231E+00  1.326229936914E+00  1.342144696157E+00
  1.358250432511E+00  1.374549437701E+00  1.391044030954E+00  1.407736559325E+00
  1.424629398037E+00  1.441724950813E+00  1.459025650223E+00  1.476533958026E+00
  1.494252365522E+00  1.512183393908E+00  1.530329594635E+00  1.548693549771E+00
  1.567277872368E+00  1.586085206837E+00  1.605118229319E+00  1.624379648071E+00
  1.643872203847E+00  1.663598670294E+00  1.683561854337E+00  1.703764596589E+00
  1.724209771748E+00  1.744900289009E+00  1.765839092477E+00  1.787029161587E+00
  1.808473511526E+00  1.830175193664E+00  1.852137295988E+00  1.874362943540E+00
  1.896855298863E+00  1.919617562449E+00  1.942652973198E+00  1.965964808877E+00
  1.989556386583E+00  2.013431063222E+00  2.037592235981E+00  2.062043342813E+00
  2.086787862926E+00  2.111829317282E+00  2.137171269089E+00  2.162817324318E+00
  2.188771132210E+00  2.215036385796E+00  2.241616822426E+00  2.268516224295E+00
  2.295738418987E+00  2.323287280014E+00  2.351166727375E+00  2.379380728103E+00
  2.407933296840E+00  2.436828496402E+00  2.466070438359E+00  2.495663283620E+00
  2.525611243023E+00  2.555918577939E+00  2.586589600875E+00  2.617628676085E+00
  2.649040220198E+00  2.680828702840E+00  2.712998647275E+00  2.745554631042E+00
  2.778501286614E+00  2.811843302054E+00  2.845585421678E+00  2.879732446738E+00
  2.914289236099E+00  2.949260706933E+00  2.984651835416E+00  3.020467657441E+00
  3.056713269330E+00  3.093393828562E+00  3.130514554505E+00  3.168080729159E+00
  3.206097697909E+00  3.244570870284E+00  3.283505720727E+00  3.322907789376E+00
  3.362782682848E+00  3.403136075042E+00  3.443973707943E+00  3.485301392438E+00
  3.527125009147E+00  3.569450509257E+00  3.612283915368E+00  3.655631322353E+00
  3.699498898221E+00  3.743892885000E+00  3.788819599620E+00  3.834285434815E+00
  3.880296860033E+00  3.926860422353E+00  3.973982747421E+00  4.021670540391E+00
  4.069930586875E+00  4.118769753918E+00  4.168194990965E+00  4.218213330856E+00
  4.268831890827E+00  4.320057873516E+00  4.371898567999E+00  4.424361350815E+00
  4.477453687024E+00  4.531183131269E+00  4.585557328844E+00  4.640584016790E+00
  4.696271024992E+00  4.752626277291E+00  4.809657792619E+00  4.867373686130E+00
  4.925782170364E+00  4.984891556408E+00  5.044710255085E+00  5.105246778146E+00
  5.166509739484E+00  5.228507856358E+00  5.291249950634E+00  5.354744950042E+00
  5.419001889442E+00  5.484029912116E+00  5.549838271061E+00  5.616436330314E+00
  5.683833566277E+00  5.752039569073E+00  5.821064043902E+00  5.890916812428E+00
  5.961607814178E+00  6.033147107948E+00  6.105544873243E+00  6.178811411722E+00
  6.252957148663E+00  6.327992634447E+00  6.403928546060E+00  6.480775688613E+00
  6.558544996876E+00  6.637247536839E+00  6.716894507281E+00  6.797497241368E+00
  6.879067208264E+00  6.961616014764E+00  7.045155406941E+00  7.129697271824E+00
  7.215253639086E+00  7.301836682755E+00  7.389458722948E+00  7.478132227623E+00
  7.567869814355E+00  7.658684252127E+00  7.750588463153E+00  7.843595524710E+00
  7.937718671007E+00  8.032971295059E+00  8.129366950600E+00  8.226919354007E+00
  8.325642386255E+00  8.425550094890E+00  8.526656696029E+00  8.628976576381E+00
  8.732524295298E+00  8.837314586841E+00  8.943362361883E+00  9.050682710226E+00
  9.159290902749E+00  9.269202393582E+00  9.380432822305E+00  9.492998016172E+00
  9.606913992366E+00  9.722196960275E+00  9.838863323798E+00  9.956929683684E+00
  1.007641283989E+01  1.019732979397E+01  1.031969775149E+01  1.044353412451E+01
  1.056885653401E+01  1.069568281241E+01  1.082403100616E+01  1.095391937824E+01
  1.108536641078E+01  1.121839080771E+01  1.135301149740E+01  1.148924763537E+01
  1.162711860699E+01  1.176664403027E+01  1.190784375864E+01  1.205073788374E+01
  1.219534673835E+01  1.234169089921E+01  1.248979119000E+01  1.263966868428E+01
  1.279134470849E+01  1.294484084499E+01  1.310017893513E+01  1.325738108235E+01
  1.341646965534E+01  1.357746729120E+01  1.374039689870E+01  1.390528166148E+01
  1.407214504142E+01  1.424101078192E+01  1.441190291130E+01  1.458484574624E+01
  1.475986389519E+01  1.493698226193E+01  1.511622604908E+01  1.529762076167E+01
  1.548119221081E+01  1.566696651734E+01  1.585497011554E+01  1.604522975693E+01
  1.623777251401E+01  1.643262578418E+01  1.662981729359E+01  1.682937510111E+01
  1.703132760233E+01  1.723570353356E+01  1.744253197596E+01  1.765184235967E+01
  1.786366446799E+01  1.807802844160E+01  1.829496478290E+01  1.851450436030E+01
  1.873667841262E+01  1.896151855357E+01  1.918905677621E+01  1.941932545753E+01
  1.965235736302E+01  1.988818565138E+01  2.012684387919E+01  2.036836600574E+01
  2.061278639781E+01  2.086013983458E+01  2.111046151260E+01  2.136378705075E+01
  2.162015249536E+01  2.187959432530E+01  2.214214945721E+01  2.240785525069E+01
  2.267674951370E+01  2.294887050787E+01  2.322425695396E+01  2.350294803741E+01
  2.378498341386E+01  2.407040321482E+01  2.435924805340E+01  2.465155903004E+01
  2.494737773840E+01  2.524674627126E+01  2.554970722652E+01  2.585630371324E+01
  2.616657935780E+01  2.648057831009E+01  2.679834524981E+01  2.711992539281E+01
  2.744536449752E+01  2.777470887149E+01  2.810800537795E+01  2.844530144249E+01
  2.878664505980E+01  2.913208480051E+01  2.948166981812E+01  2.983544985594E+01
  3.019347525421E+01  3.055579695726E+01  3.092246652075E+01  3.129353611899E+01
  3.166905855242E+01  3.204908725505E+01  3.243367630211E+01  3.282288041774E+01
  3.321675498275E+01  3.361535604254E+01  3.401874031505E+01  3.442696519883E+01
  3.484008878122E+01  3.525816984660E+01  3.568126788475E+01  3.610944309937E+01
  3.654275641656E+01  3.698126949356E+01  3.742504472749E+01  3.787414526422E+01
  3.832863500739E+01  3.878857862747E+01  3.925404157100E+01  3.972509006986E+01
  4.020179115069E+01  4.068421264450E+01  4.117242319624E+01  4.166649227459E+01
  4.216649018189E+01  4.267248806407E+01  4.318455792084E+01  4.370277261589E+01
  4.422720588728E+01
</grid-data>
</grid>
<valence-charge total-charge="12" is-unscreening-charge="yes"
 rescaled-to-z-pseudo="no">
<radfunc>
<data npts="457">
  1.932979765855E+00  1.935180460621E+00  1.941758709636E+00  1.952732286559E+00
  1.967986825113E+00  1.988040511909E+00  2.013591407901E+00  2.042839369254E+00
  2.075712749743E+00  2.114031102966E+00  2.157200130960E+00  2.204094927630E+00
  2.260732221944E+00  2.319839599404E+00  2.389506418220E+00  2.459016893905E+00
  2.538977279227E+00  2.614688521098E+00  2.699705295444E+00  2.795129425542E+00
  2.902181590475E+00  2.997097504498E+00  3.101069784679E+00  3.214911311425E+00
  3.339496687560E+00  3.475764318412E+00  3.624717854294E+00  3.745399015895E+00
  3.874291566488E+00  4.011891070379E+00  4.158712554758E+00  4.315289350947E+00
  4.482171468395E+00  4.659923414179E+00  4.849121358168E+00  5.050349530003E+00
  5.264195718881E+00  5.491245730701E+00  5.650233432041E+00  5.815513520460E+00
  5.987248653936E+00  6.165595556176E+00  6.350703460350E+00  6.542712374302E+00
  6.741751152918E+00  6.947935362912E+00  7.161364925043E+00  7.382121518723E+00
  7.610265734183E+00  7.845833957911E+00  8.088834977976E+00  8.339246297286E+00
  8.597010144836E+00  8.862029177676E+00  9.134161869852E+00  9.413217589080E+00
  9.698951367459E+00  9.991058379417E+00  1.028916814835E+01  1.059283851337E+01
  1.090154939906E+01  1.121469644506E+01  1.153158456748E+01  1.185142154225E+01
  1.217331172027E+01  1.249625000627E+01  1.281911625737E+01  1.298013962073E+01
  1.314067028289E+01  1.330053377438E+01  1.345954765412E+01  1.361752143969E+01
  1.377425656019E+01  1.392954633396E+01  1.408317597369E+01  1.423492262134E+01
  1.438455541541E+01  1.453183559330E+01  1.467651663128E+01  1.481834442494E+01
  1.495705751279E+01  1.509238734569E+01  1.522405860489E+01  1.535178957126E+01
  1.547529254833E+01  1.559427434149E+01  1.570843679574E+01  1.581747739404E+01
  1.592108991813E+01  1.601896517347E+01  1.611079177952E+01  1.619625702640E+01
  1.627504779824E+01  1.634685156358E+01  1.641135743210E+01  1.646825727676E+01
  1.651724691984E+01  1.655802738044E+01  1.659030618063E+01  1.661379870639E+01
  1.662822961901E+01  1.663333431162E+01  1.662886040469E+01  1.661456927358E+01
  1.659023760044E+01  1.655565894160E+01  1.651064530120E+01  1.645502870071E+01
  1.638866273320E+01  1.631142409083E+01  1.622321405307E+01  1.612395992265E+01
  1.601361639619E+01  1.589216685538E+01  1.575962456518E+01  1.561603376484E+01
  1.546147063791E+01  1.529604414754E+01  1.511989672391E+01  1.493320479101E+01
  1.473617912086E+01  1.452906500424E+01  1.431214222789E+01  1.408572484963E+01
  1.385016076404E+01  1.360583105295E+01  1.335314911670E+01  1.309255958374E+01
  1.282453699810E+01  1.254958428594E+01  1.226823100451E+01  1.198103137872E+01
  1.168856213219E+01  1.139142012188E+01  1.109021978700E+01  1.078559042470E+01
  1.047817330693E+01  1.016861865421E+01  9.857582483952E+00  9.545723352292E+00
  9.233699010042E+00  8.922162994680E+00  8.611761181819E+00  8.303128320981E+00
  7.996884581866E+00  7.693632138691E+00  7.393951821494E+00  7.098399864540E+00
  6.807504783125E+00  6.521764411032E+00  6.241643131612E+00  5.967569335900E+00
  5.699933141101E+00  5.439084402266E+00  5.185331048769E+00  4.938937775315E+00
  4.700125114501E+00  4.469068914364E+00  4.245900239970E+00  4.030705712763E+00
  3.823528295314E+00  3.624368522343E+00  3.433186844805E+00  3.249909179651E+00
  3.074434303514E+00  2.906637402213E+00  2.746372793136E+00  2.593478858416E+00
  2.447779901185E+00  2.309088115347E+00  2.177205488182E+00  2.051925669562E+00
  1.933035784479E+00  1.820318179082E+00  1.713552087598E+00  1.612515207188E+00
  1.516985167281E+00  1.426740879580E+00  1.341563754930E+00  1.261238773594E+00
  1.185555396481E+00  1.114308306484E+00  1.047297811508E+00  9.843286107076E-01
  9.252085457239E-01  8.697489668992E-01  8.177651895628E-01  7.690768975900E-01
  7.235084958692E-01  6.808894134983E-01  6.410543596887E-01  6.038435344875E-01
  5.691027965453E-01  5.366837902481E-01  5.064440346100E-01  4.782469763844E-01
  4.519620099049E-01  4.274644662101E-01  4.046355740475E-01  3.833623953848E-01
  3.635377380912E-01  3.450600484680E-01  3.278332863214E-01  3.117667852488E-01
  2.967751007594E-01  2.827778487551E-01  2.696995367414E-01  2.574693899303E-01
  2.460211741325E-01  2.352930170236E-01  2.252272290418E-01  2.157701248399E-01
  2.068718459185E-01  1.984861848188E-01  1.905704110823E-01  1.830850990868E-01
  1.759939578473E-01  1.692636629049E-01  1.628636905003E-01  1.567661543172E-01
  1.509456451650E-01  1.453790740328E-01  1.400455189836E-01  1.349260763606E-01
  1.300037167552E-01  1.252631461373E-01  1.206906724870E-01  1.162740781939E-01
  1.120024984159E-01  1.078663055168E-01  1.038569996343E-01  9.996710537210E-02
  9.619007455607E-02  9.252019495541E-02  8.895250483212E-02  8.548271315725E-02
  8.210712531050E-02  7.882257406525E-02  7.562635564958E-02  7.251617066743E-02
  6.949006965946E-02  6.654640308179E-02  6.368377548100E-02  6.090100364577E-02
  5.819707851884E-02  5.557113065749E-02  5.302239903621E-02  5.055020299173E-02
  4.815391711785E-02  4.583294892549E-02  4.358671909190E-02  4.141464413228E-02
  3.931612133632E-02  3.729051582176E-02  3.533714956670E-02  3.345529229124E-02
  3.164415406787E-02  2.990287954754E-02  2.823054369485E-02  2.662614893130E-02
  2.508862358944E-02  2.361682158310E-02  2.220952320037E-02  2.086543692578E-02
  1.958320219827E-02  1.836139300660E-02  1.719852222429E-02  1.609304658993E-02
  1.504337222671E-02  1.404786060144E-02  1.310483482226E-02  1.221258617598E-02
  1.136938080889E-02  1.057346645919E-02  9.823079154800E-03  9.116449796869E-03
  8.451810556881E-03  7.827401023587E-03  7.241474044675E-03  6.692301217175E-03
  6.178177989553E-03  5.697428347369E-03  5.248409062794E-03  4.829513496302E-03
  4.439174946184E-03  4.075869548182E-03  3.738118733404E-03  3.424491257782E-03
  3.133604820614E-03  2.864127293253E-03  2.614777581757E-03  2.384326149376E-03
  2.171595226155E-03  1.975458733746E-03  1.794841953772E-03  1.628720967909E-03
  1.476121897199E-03  1.336119967197E-03  1.207838424225E-03  1.090447326586E-03
  9.831622328735E-04  8.852428077554E-04  7.959913637272E-04  7.147513554557E-04
  6.409058414533E-04  5.738759260073E-04  5.131191925619E-04  4.581281381297E-04
  4.084286168329E-04  3.635782993402E-04  3.231651537932E-04  2.868059527964E-04
  2.541448101868E-04  2.248517505786E-04  1.986213140965E-04  1.751711982413E-04
  1.542409384663E-04  1.355906287521E-04  1.189996832495E-04  1.042656398807E-04
  9.120300665033E-05  7.964215129250E-05  6.942823476793E-05  6.042018901519E-05
  5.248973924358E-05  4.552047093378E-05  3.940694158124E-05  3.405383707751E-05
  2.937517247746E-05  2.529353674780E-05  2.173938093729E-05  1.865034905411E-05
  1.597065078520E-05  1.365047504761E-05  1.164544322722E-05  9.916100836467E-06
  8.427446213564E-06  7.148494790741E-06  6.051877380840E-06  5.113470869666E-06
  4.312059656293E-06  3.629026154732E-06  3.048068657228E-06  2.554944861176E-06
  2.137239377008E-06  1.784153562194E-06  1.486316065230E-06  1.235612511822E-06
  1.025032821790E-06  8.485347082121E-07  7.009219784525E-07  5.777363287698E-07
  4.751613988159E-07  3.899379284793E-07  3.192889361107E-07  2.608539133202E-07
  2.126311064642E-07  1.729270279748E-07  1.403124112848E-07  1.135838908149E-07
  9.173075296766E-08  7.390616508454E-08  5.940234666467E-08  4.762920075433E-08
  3.809597323772E-08  3.039555382723E-08  2.419107493009E-08  1.920450336498E-08
  1.520695525393E-08  1.201049648336E-08  9.461220115292E-09  7.433417838748E-09
  5.824688440728E-09  4.551835138493E-09  3.425662393622E-09  2.662631115628E-09
  2.063804485716E-09  1.595158713986E-09  1.229429206727E-09  9.448300332771E-10
  7.240031158579E-10  5.531584972525E-10  4.213730484874E-10  3.200201457292E-10
  2.423072702549E-10  1.829022609378E-10  1.376321589407E-10  1.032413041460E-10
  7.719763899394E-11  5.753810695263E-11  4.274565189819E-11  3.165167696167E-11
  2.335894680890E-11  1.718085056387E-11  1.259371368553E-11  9.199481930074E-12
  6.696621257510E-12  4.857503117951E-12  3.510891086011E-12  2.528425937856E-12
  1.814233480232E-12  1.296962393522E-12  9.237061071426E-13  6.553799980979E-13
  4.632185557443E-13  3.261311790859E-13  2.287137400102E-13  1.597590440256E-13
  1.111453645126E-13  7.701035780166E-14  5.313953282757E-14  3.651537633398E-14
  2.498628414666E-14  1.702446722302E-14  1.154965976628E-14  7.801286500502E-15
  5.246164830596E-15  3.512152091633E-15  2.340653373686E-15  1.552779331551E-15
  1.025338771268E-15  6.738851363477E-16  4.407992001812E-16  2.869507764081E-16
  1.858919809280E-16  1.198326605615E-16  7.686442439926E-17  4.905521657649E-17
  3.114787129213E-17  1.967560702733E-17  1.236396211988E-17  7.728405943349E-18
  4.805044442931E-18  2.971338963858E-18  1.827368101932E-18  1.117610157614E-18
  6.796982651238E-19  4.110306576938E-19  2.471353458897E-19  1.477297989667E-19
  8.778970419671E-20  5.185976852304E-20  3.045074861168E-20  1.777110003477E-20
  1.030736678995E-20  5.941088031521E-21  3.402800141635E-21  1.936538118595E-21
  1.094967799765E-21  6.150755053909E-22  3.432202684795E-22  1.902391255585E-22
  1.047307771506E-22  0.000000000000E+00  0.000000000000E+00  0.000000000000E+00
  0.000000000000E+00
</data>
</radfunc>
</valence-charge>
<pseudocore-charge matching-radius="0.535673147899"
 number-of-continuous-derivatives="4">
<annotation model-charge-form="Teter function with specified parameters" />
<radfunc>
<data npts="290">
  4.086640397344E+01  4.086054886394E+01  4.084304857035E+01  4.081386073089E+01
  4.077329761588E+01  4.071999323353E+01  4.065210981743E+01  4.057444942194E+01
  4.048722037732E+01  4.038562015706E+01  4.027125758691E+01  4.014714353938E+01
  3.999740904354E+01  3.984133576116E+01  3.965763062280E+01  3.947460695192E+01
  3.926439974893E+01  3.906568882946E+01  3.884293096510E+01  3.859337634232E+01
  3.831400366943E+01  3.806682369689E+01  3.779661825296E+01  3.750143141774E+01
  3.717918072524E+01  3.682765771523E+01  3.644453089560E+01  3.613497698017E+01
  3.580519762129E+01  3.545408875230E+01  3.508051958150E+01  3.468333778431E+01
  3.426137589413E+01  3.381345904444E+01  3.333841422352E+01  3.283508120962E+01
  3.230232535866E+01  3.173905241663E+01  3.134606822334E+01  3.093876934119E+01
  3.051688456448E+01  3.008016366220E+01  2.962838065058E+01  2.916133729906E+01
  2.867886687022E+01  2.818083809222E+01  2.766715935869E+01  2.713778314729E+01
  2.659271064400E+01  2.603199655504E+01  2.545575408265E+01  2.486416003469E+01
  2.425746003084E+01  2.363597376038E+01  2.300010023781E+01  2.235032299348E+01
  2.168721512631E+01  2.101144413506E+01  2.032377643399E+01  1.962508144704E+01
  1.891633516375E+01  1.819862302877E+01  1.747314202641E+01  1.674120181217E+01
  1.600422473477E+01  1.526374458649E+01  1.452140391585E+01  1.415007789868E+01
  1.377894973686E+01  1.340825313670E+01  1.303822747282E+01  1.266911749167E+01
  1.230117298203E+01  1.193464841135E+01  1.156980252744E+01  1.120689792464E+01
  1.084620057415E+01  1.048797931817E+01  1.013250532765E+01  9.780051523764E+00
  9.430891963456E+00  9.085301189402E+00  8.743553545337E+00  8.405922457705E+00
  8.072679684989E+00  7.744094536384E+00  7.420433061772E+00  7.101957215336E+00
  6.788923995466E+00  6.481584564005E+00  6.180183348253E+00  5.884957129506E+00
  5.596134122333E+00  5.313933049138E+00  5.038562214962E+00  4.770218587837E+00
  4.509086890380E+00  4.255338708631E+00  4.009131624476E+00  3.770608378278E+00
  3.539896068571E+00  3.317105395904E+00  3.102329958051E+00  2.895645603926E+00
  2.697109853545E+00  2.506761391376E+00  2.324619640252E+00  2.150684422882E+00
  1.984935717635E+00  1.827333514930E+00  1.677817780064E+00  1.536308527682E+00
  1.402706012438E+00  1.276891039538E+00  1.158725397958E+00  1.048052418098E+00
  9.446976544889E-01  8.484696929634E-01  7.591610803688E-01  6.765493735222E-01
  6.003983026527E-01  5.304590430806E-01  4.664715873568E-01  4.081662085614E-01
  3.552650039502E-01  3.074835066744E-01  2.645323519121E-01  2.261189824622E-01
  1.919493777072E-01  1.617297888627E-01  1.351684626509E-01  1.119773349804E-01
  9.187367591246E-02  7.458166718546E-02  5.983389385922E-02  4.737273225875E-02
  3.695161735329E-02  2.833617400310E-02  2.130519814674E-02  1.565147597166E-02
  1.118243139395E-02  7.720594739947E-03  5.103888333908E-03  3.185727705543E-03
  1.834940280099E-03  9.355066366099E-04  3.861326428904E-04  9.966391929397E-05
  2.357063403646E-06  3.302479901920E-05  1.420746103758E-04  2.904624055134E-04
  4.485842471711E-04  5.951301318347E-04  7.159241374598E-04  8.027749644183E-04
  8.523599482633E-04  8.651640345482E-04  8.444930060339E-04  7.955774960547E-04
  7.247810872787E-04  6.389221837026E-04  5.447154764562E-04  4.483348379557E-04
  3.550955223828E-04  2.692497767801E-04  1.938865279025E-04  1.309228478584E-04
  8.117254216390E-05  4.447554847937E-05  1.987095326048E-05  5.796360414808E-06
  2.970737463039E-07  1.230033978588E-06  6.449590148096E-06  1.396485436149E-05
  2.206142618533E-05  2.938349254322E-05  3.497551261387E-05  3.828568664820E-05
  3.913599836614E-05  3.766565540445E-05  3.425611349991E-05  2.944648968890E-05
  2.384803610663E-05  1.806550609007E-05  1.263180173239E-05  7.960399227464E-06
  4.317894348319E-06  1.816804604222E-06  4.267176060332E-07  1.785499919982E-10
  3.085168875141E-07  1.082222143213E-06  2.050524897070E-06  2.975484641766E-06
  3.677028433348E-06  4.046864464262E-06  4.050817351661E-06  3.720688102032E-06
  3.138035308569E-06  2.413147546675E-06  1.662832379505E-06  9.904608101163E-07
  4.710309636236E-07  1.429750646004E-07  7.205309266833E-09  0.000000000000E+00
  0.000000000000E+00  0.000000000000E+00  0.000000000000E+00  0.000000000000E+00
  0.000000000000E+00  0.000000000000E+00  0.000000000000E+00  0.000000000000E+00
  0.000000000000E+00  0.000000000000E+00  0.000000000000E+00  0.000000000000E+00
  0.000000000000E+00  0.000000000000E+00  0.000000000000E+00  0.000000000000E+00
  0.000000000000E+00  0.000000000000E+00  0.000000000000E+00  0.000000000000E+00
  0.000000000000E+00  0.000000000000E+00  0.000000000000E+00  0.000000000000E+00
  0.000000000000E+00  0.000000000000E+00  0.000000000000E+00  0.000000000000E+00
  0.000000000000E+00  0.000000000000E+00  0.000000000000E+00  0.000000000000E+00
  0.000000000000E+00  0.000000000000E+00  0.000000000000E+00  0.000000000000E+00
  0.000000000000E+00  0.000000000000E+00  0.000000000000E+00  0.000000000000E+00
  0.000000000000E+00  0.000000000000E+00  0.000000000000E+00  0.000000000000E+00
  0.000000000000E+00  0.000000000000E+00  0.000000000000E+00  0.000000000000E+00
  0.000000000000E+00  0.000000000000E+00  0.000000000000E+00  0.000000000000E+00
  0.000000000000E+00  0.000000000000E+00  0.000000000000E+00  0.000000000000E+00
  0.000000000000E+00  0.000000000000E+00  0.000000000000E+00  0.000000000000E+00
  0.000000000000E+00  0.000000000000E+00  0.000000000000E+00  0.000000000000E+00
  0.000000000000E+00  0.000000000000E+00  0.000000000000E+00  0.000000000000E+00
  0.000000000000E+00  0.000000000000E+00  0.000000000000E+00  0.000000000000E+00
  0.000000000000E+00  0.000000000000E+00  0.000000000000E+00  0.000000000000E+00
  0.000000000000E+00  0.000000000000E+00  0.000000000000E+00  0.000000000000E+00
  0.000000000000E+00  0.000000000000E+00
</data>
</radfunc>
</pseudocore-charge>
<semilocal-potentials set="scalar_relativistic">
<slps n="3" l="s" rc="1.35825043251" eref="-2.30174011666">
<radfunc>
<data npts="290">
 -2.193418029816E+00 -2.196007484718E+00 -2.203741537841E+00 -2.216633982650E+00
 -2.234537861238E+00 -2.258042560213E+00 -2.287938290281E+00 -2.322088220213E+00
 -2.360380380693E+00 -2.404894252650E+00 -2.454888047151E+00 -2.509011475144E+00
 -2.574123649327E+00 -2.641779388284E+00 -2.721136341319E+00 -2.799902986365E+00
 -2.890006348208E+00 -2.974828374592E+00 -3.069509491037E+00 -3.175074889744E+00
 -3.292625427271E+00 -3.396081673653E+00 -3.508590952059E+00 -3.630810881484E+00
 -3.763420343421E+00 -3.907114467498E+00 -4.062598216361E+00 -4.187373347446E+00
 -4.319473644817E+00 -4.459189704358E+00 -4.606803870935E+00 -4.762586780289E+00
 -4.926793505629E+00 -5.099659300497E+00 -5.281394935701E+00 -5.472181635455E+00
 -5.672165626455E+00 -5.881452323279E+00 -6.026175950719E+00 -6.175065604883E+00
 -6.328114283422E+00 -6.485302681289E+00 -6.646598290359E+00 -6.811954492558E+00
 -6.981309651986E+00 -7.154586212033E+00 -7.331689803842E+00 -7.512508373058E+00
 -7.696911332070E+00 -7.884748745450E+00 -8.075850556604E+00 -8.270025863991E+00
 -8.467062255633E+00 -8.666725210874E+00 -8.868757578716E+00 -9.072879142272E+00
 -9.278786279221E+00 -9.486151728350E+00 -9.694624472521E+00 -9.903829748583E+00
 -1.011336919472E+01 -1.032282114576E+01 -1.053174108642E+01 -1.073966227176E+01
 -1.094609652317E+01 -1.115053520593E+01 -1.135245039233E+01 -1.145229174982E+01
 -1.155129621094E+01 -1.164939298948E+01 -1.174651037898E+01 -1.184257581005E+01
 -1.193751591017E+01 -1.203125656574E+01 -1.212372298644E+01 -1.221483977148E+01
 -1.230453097778E+01 -1.239272018992E+01 -1.247933059152E+01 -1.256428503819E+01
 -1.264750613165E+01 -1.272891629513E+01 -1.280843784986E+01 -1.288599309263E+01
 -1.296150437442E+01 -1.303489418021E+01 -1.310608520985E+01 -1.317500046039E+01
 -1.324156330979E+01 -1.330569760228E+01 -1.336732773568E+01 -1.342637875086E+01
 -1.348277642351E+01 -1.353644735877E+01 -1.358731908862E+01 -1.363532017264E+01
 -1.368038030205E+01 -1.372243040743E+01 -1.376140277012E+01 -1.379723113743E+01
 -1.382985084146E+01 -1.385919892168E+01 -1.388521425074E+01 -1.390783766328E+01
 -1.392701208718E+01 -1.394268267655E+01 -1.395479694556E+01 -1.396330490205E+01
 -1.396815917972E+01 -1.396931516729E+01 -1.396673113309E+01 -1.396036834317E+01
 -1.395019117101E+01 -1.393616719682E+01 -1.391826729428E+01 -1.389646570291E+01
 -1.387074008416E+01 -1.384107155993E+01 -1.380744473253E+01 -1.376984768550E+01
 -1.372827196607E+01 -1.368271255014E+01 -1.363316779229E+01 -1.357963936419E+01
 -1.352213218605E+01 -1.346065435697E+01 -1.339521709152E+01 -1.332583467104E+01
 -1.325252441950E+01 -1.317530671520E+01 -1.309420505047E+01 -1.300924615300E+01
 -1.292046018325E+01 -1.282788102344E+01 -1.273154667426E+01 -1.263149977631E+01
 -1.252778827347E+01 -1.242046623566E+01 -1.230959485832E+01 -1.219524365530E+01
 -1.207749186064E+01 -1.195643005306E+01 -1.183216201399E+01 -1.170480682645E+01
 -1.157450121692E+01 -1.144140213556E+01 -1.130568956198E+01 -1.116756951336E+01
 -1.102727721886E+01 -1.088508040966E+01 -1.074128265658E+01 -1.059622666773E+01
 -1.045029743752E+01 -1.030392511574E+01 -1.015758744260E+01 -1.001181157407E+01