<?xml version="1.0" encoding="UTF-8" ?>
<psml version="1.1" energy_unit="hartree" length_unit="bohr"
 uuid="ae36c5a0-be6c-11e7-6c6d-128d9fcf657f"
 xmlns="http://esl.cecam.org/PSML/ns/1.1">
<provenance creator="ONCVPSP-3.3.0+psml-3.3.0-73 (scalar-relativistic)"
 date="2017-10-31">
<annotation action="semilocal-pseudopotential-generation"
 action-cont="projectors-generation" />
<input-file name="oncvpsp-input">
<![CDATA[# atsym z nc nv iexc psfile
Te 52 6 5 4 upf
# n l f
1 0 2.0
2 0 2.0
2 1 6.0
3 0 2.0
3 1 6.0
3 2 10.0
4 0 2.0
4 1 6.0
4 2 10.0
5 0 2.0
5 1 4.0
# lmax
2
# l rc ep ncon nbas qcut
0 1.3 0.0 4 8 9.4
1 1.3 0.0 4 8 9.6
2 1.5 0.0 4 8 10.0
# lloc lpopt rc5 dvloc0
4 5 1.3 0.0
# l nproj debl
0 2 3.0
1 2 3.5
2 2 1.6
# icmod fcfact rcfact
3 5.0 1.5
# epsh1 epsh2 depsh
-12.0 12.0 0.02
# rlmax drl
6.0 0.01
 0
]]>
</input-file>
</provenance>
<pseudo-atom-spec atomic-label="Te" atomic-number="52" z-pseudo="24"
 flavor="Hamann&apos;s oncvpsp" relativity="scalar" spin-dft="no"
 core-corrections="yes">
<annotation pseudo-energy="-268.357518115" />
<exchange-correlation>
<annotation oncvpsp-xc-code="4" oncvpsp-xc-type="GGA -- Perdew-Burke-Ernzerhof" />
<libxc-info number-of-functionals="2">
<functional name="Perdew, Burke &amp; Ernzerhof (GGA)" type="exchange" id="101" />
<functional name="Perdew, Burke &amp; Ernzerhof (GGA)" type="correlation"
 id="130" />
</libxc-info>
</exchange-correlation>
<valence-configuration total-valence-charge="24">
<shell n="4" l="s" occupation="2" />
<shell n="4" l="p" occupation="6" />
<shell n="4" l="d" occupation="10" />
<shell n="5" l="s" occupation="2" />
<shell n="5" l="p" occupation="4" />
</valence-configuration>
</pseudo-atom-spec>
<grid npts="457">
<annotation type="sampled from oncvpsp log grid"
 recipe="r(i:1..N) = r1*exp(a*(i-1)) + r=0; resampled"
 recipe-cont="r1: scale; a: step" scale="0.961538461538E-05"
 step="0.119285708653E-01" delta="0.500000000000E-02" rmax="44.1677972533" />
<grid-data>
  0.000000000000E+00  5.043542968859E-03  1.007408127726E-02  1.511272833334E-02
  2.012218676581E-02  2.524090447309E-02  3.054872670761E-02  3.567301166182E-02
  4.067479879938E-02  4.582796137488E-02  5.102172656014E-02  5.613054395614E-02
  6.175090843111E-02  6.712849932167E-02  7.297439884964E-02  7.838872507068E-02
  8.420476653556E-02  8.937977120117E-02  9.487281811536E-02  1.007034533227E-01
  1.068924241165E-01  1.121163565855E-01  1.175955875068E-01  1.233425935539E-01
  1.293704611469E-01  1.356929162517E-01  1.423243556345E-01  1.475097624955E-01
  1.528840930596E-01  1.584542305217E-01  1.642273088569E-01  1.702107219580E-01
  1.764121331045E-01  1.828394847779E-01  1.895010088340E-01  1.964052370456E-01
  2.035610120299E-01  2.109774985736E-01  2.160713392991E-01  2.212881657152E-01
  2.266309471882E-01  2.321027247771E-01  2.377066129641E-01  2.434458014276E-01
  2.493235568572E-01  2.553432248140E-01  2.615082316339E-01  2.678220863785E-01
  2.742883828320E-01  2.809108015471E-01  2.876931119396E-01  2.946391744343E-01
  3.017529426618E-01  3.090384657095E-01  3.164998904256E-01  3.241414637800E-01
  3.319675352815E-01  3.399825594533E-01  3.481910983688E-01  3.565978242478E-01
  3.652075221164E-01  3.740250925304E-01  3.830555543645E-01  3.923040476690E-01
  4.017758365960E-01  4.114763123947E-01  4.214109964812E-01  4.264679284390E-01
  4.315855435802E-01  4.367645701032E-01  4.420057449444E-01  4.473098138838E-01
  4.526775316504E-01  4.581096620302E-01  4.636069779745E-01  4.691702617102E-01
  4.748003048508E-01  4.804979085090E-01  4.862638834111E-01  4.920990500120E-01
  4.980042386121E-01  5.039802894755E-01  5.100280529492E-01  5.161483895846E-01
  5.223421702596E-01  5.286102763027E-01  5.349535996183E-01  5.413730428138E-01
  5.478695193275E-01  5.544439535595E-01  5.610972810022E-01  5.678304483742E-01
  5.746444137547E-01  5.815401467198E-01  5.885186284804E-01  5.955808520222E-01
  6.027278222464E-01  6.099605561134E-01  6.172800827867E-01  6.246874437802E-01
  6.321836931055E-01  6.397698974228E-01  6.474471361919E-01  6.552165018262E-01
  6.630790998481E-01  6.710360490463E-01  6.790884816348E-01  6.872375434144E-01
  6.954843939354E-01  7.038302066626E-01  7.122761691426E-01  7.208234831723E-01
  7.294733649704E-01  7.382270453500E-01  7.470857698942E-01  7.560507991330E-01
  7.651234087225E-01  7.743048896272E-01  7.835965483027E-01  7.929997068824E-01
  8.025157033650E-01  8.121458918053E-01  8.218916425070E-01  8.317543422171E-01
  8.417353943237E-01  8.518362190556E-01  8.620582536842E-01  8.724029527285E-01
  8.828717881612E-01  8.934662496191E-01  9.041878446146E-01  9.150380987499E-01
  9.260185559349E-01  9.371307786062E-01  9.483763479494E-01  9.597568641248E-01
  9.712739464943E-01  9.829292338523E-01  9.947243846585E-01  1.006661077274E+00
  1.018741010202E+00  1.030965902324E+00  1.043337493152E+00  1.055857543070E+00
  1.068527833587E+00  1.081350167590E+00  1.094326369601E+00  1.107458286036E+00
  1.120747785468E+00  1.134196758894E+00  1.147807120001E+00  1.161580805441E+00
  1.175519775106E+00  1.189626012407E+00  1.203901524556E+00  1.218348342851E+00
  1.232968522965E+00  1.247764145241E+00  1.262737314984E+00  1.277890162763E+00
  1.293224844717E+00  1.308743542853E+00  1.324448465367E+00  1.340341846952E+00
  1.356425949115E+00  1.372703060505E+00  1.389175497231E+00  1.405845603197E+00
  1.422715750436E+00  1.439788339441E+00  1.457065799514E+00  1.474550589108E+00
  1.492245196178E+00  1.510152138532E+00  1.528273964194E+00  1.546613251765E+00
  1.565172610786E+00  1.583954682115E+00  1.602962138301E+00  1.622197683960E+00
  1.641664056168E+00  1.661364024842E+00  1.681300393140E+00  1.701475997858E+00
  1.721893709832E+00  1.742556434350E+00  1.763467111562E+00  1.784628716901E+00
  1.806044261504E+00  1.827716792642E+00  1.849649394153E+00  1.871845186883E+00
  1.894307329126E+00  1.917039017075E+00  1.940043485280E+00  1.963324007103E+00
  1.986883895189E+00  2.010726501931E+00  2.034855219954E+00  2.059273482594E+00
  2.083984764385E+00  2.108992581557E+00  2.134300492536E+00  2.159912098446E+00
  2.185831043628E+00  2.212061016151E+00  2.238605748345E+00  2.265469017325E+00
  2.292654645533E+00  2.320166501280E+00  2.348008499295E+00  2.376184601287E+00
  2.404698816502E+00  2.433555202300E+00  2.462757864728E+00  2.492310959104E+00
  2.522218690614E+00  2.552485314901E+00  2.583115138680E+00  2.614112520344E+00
  2.645481870588E+00  2.677227653035E+00  2.709354384872E+00  2.741866637490E+00
  2.774769037140E+00  2.808066265586E+00  2.841763060773E+00  2.875864217502E+00
  2.910374588112E+00  2.945299083169E+00  2.980642672167E+00  3.016410384233E+00
  3.052607308844E+00  3.089238596550E+00  3.126309459709E+00  3.163825173225E+00
  3.201791075304E+00  3.240212568208E+00  3.279095119026E+00  3.318444260454E+00
  3.358265591580E+00  3.398564778679E+00  3.439347556023E+00  3.480619726695E+00
  3.522387163416E+00  3.564655809377E+00  3.607431679089E+00  3.650720859238E+00
  3.694529509549E+00  3.738863863664E+00  3.783730230028E+00  3.829134992788E+00
  3.875084612701E+00  3.921585628054E+00  3.968644655590E+00  4.016268391458E+00
  4.064463612155E+00  4.113237175501E+00  4.162596021607E+00  4.212547173866E+00
  4.263097739953E+00  4.314254912832E+00  4.366025971786E+00  4.418418283447E+00
  4.471439302849E+00  4.525096574483E+00  4.579397733377E+00  4.634350506177E+00
  4.689962712251E+00  4.746242264798E+00  4.803197171976E+00  4.860835538040E+00
  4.919165564496E+00  4.978195551270E+00  5.037933897885E+00  5.098389104660E+00
  5.159569773916E+00  5.221484611203E+00  5.284142426537E+00  5.347552135656E+00
  5.411722761284E+00  5.476663434419E+00  5.542383395632E+00  5.608891996380E+00
  5.676198700336E+00  5.744313084740E+00  5.813244841757E+00  5.883003779858E+00
  5.953599825217E+00  6.025043023119E+00  6.097343539397E+00  6.170511661869E+00
  6.244557801812E+00  6.319492495433E+00  6.395326405379E+00  6.472070322243E+00
  6.549735166110E+00  6.628331988103E+00  6.707871971961E+00  6.788366435624E+00
  6.869826832852E+00  6.952264754846E+00  7.035691931904E+00  7.120120235087E+00
  7.205561677908E+00  7.292028418043E+00  7.379532759059E+00  7.468087152168E+00
  7.557704197994E+00  7.648396648370E+00  7.740177408151E+00  7.833059537048E+00
  7.927056251493E+00  8.022180926511E+00  8.118447097629E+00  8.215868462801E+00
  8.314458884354E+00  8.414232390966E+00  8.515203179658E+00  8.617385617814E+00
  8.720794245228E+00  8.825443776170E+00  8.931349101484E+00  9.038525290702E+00
  9.146987594191E+00  9.256751445321E+00  9.367832462665E+00  9.480246452217E+00
  9.594009409643E+00  9.709137522559E+00  9.825647172830E+00  9.943554938904E+00
  1.006287759817E+01  1.018363212935E+01  1.030583571490E+01  1.042950574348E+01
  1.055465981240E+01  1.068131573015E+01  1.080949151891E+01  1.093920541714E+01
  1.107047588214E+01  1.120332159273E+01  1.133776145184E+01  1.147381458927E+01
  1.161150036434E+01  1.175083836871E+01  1.189184842913E+01  1.203455061028E+01
  1.217896521761E+01  1.232511280022E+01  1.247301415382E+01  1.262269032367E+01
  1.277416260755E+01  1.292745255884E+01  1.308258198955E+01  1.323957297342E+01
  1.339844784910E+01  1.355922922329E+01  1.372193997397E+01  1.388660325366E+01
  1.405324249270E+01  1.422188140261E+01  1.439254397945E+01  1.456525450720E+01
  1.474003756129E+01  1.491691801202E+01  1.509592102817E+01  1.527707208050E+01
  1.546039694547E+01  1.564592170882E+01  1.583367276932E+01  1.602367684255E+01
  1.621596096466E+01  1.641055249624E+01  1.660747912619E+01  1.680676887571E+01
  1.700845010222E+01  1.721255150344E+01  1.741910212148E+01  1.762813134694E+01
  1.783966892311E+01  1.805374495018E+01  1.827038988959E+01  1.848963456826E+01
  1.871151018308E+01  1.893604830528E+01  1.916328088494E+01  1.939324025556E+01
  1.962595913863E+01  1.986147064829E+01  2.009980829607E+01  2.034100599562E+01
  2.058509806757E+01  2.083211924438E+01  2.108210467531E+01  2.133508993142E+01
  2.159111101059E+01  2.185020434272E+01  2.211240679483E+01  2.237775567637E+01
  2.264628874449E+01  2.291804420942E+01  2.319306073993E+01  2.347137746881E+01
  2.375303399844E+01  2.403807040642E+01  2.432652725130E+01  2.461844557831E+01
  2.491386692525E+01  2.521283332836E+01  2.551538732830E+01  2.582157197624E+01
  2.613143083995E+01  2.644500801003E+01  2.676234810615E+01  2.708349628342E+01
  2.740849823883E+01  2.773740021769E+01  2.807024902030E+01  2.840709200855E+01
  2.874797711265E+01  2.909295283800E+01  2.944206827206E+01  2.979537309132E+01
  3.015291756842E+01  3.051475257924E+01  3.088092961019E+01  3.125150076551E+01
  3.162651877470E+01  3.200603700000E+01  3.239010944400E+01  3.277879075732E+01
  3.317213624641E+01  3.357020188137E+01  3.397304430394E+01  3.438072083559E+01
  3.479328948562E+01  3.521080895945E+01  3.563333866696E+01  3.606093873096E+01
  3.649366999573E+01  3.693159403568E+01  3.737477316411E+01  3.782327044208E+01
  3.827714968739E+01  3.873647548363E+01  3.920131318944E+01  3.967172894771E+01
  4.014778969508E+01  4.062956317142E+01  4.111711792948E+01  4.161052334464E+01
  4.210984962477E+01  4.261516782027E+01  4.312654983411E+01  4.364406843212E+01
  4.416779725331E+01
</grid-data>
</grid>
<valence-charge total-charge="24" is-unscreening-charge="yes"
 rescaled-to-z-pseudo="no">
<radfunc>
<data npts="457">
  1.043383138740E+01  1.044046574747E+01  1.046029973847E+01  1.049339529797E+01
  1.053942118742E+01  1.059996101621E+01  1.067715207102E+01  1.076558866602E+01
  1.086508439298E+01  1.098118905285E+01  1.111215671118E+01  1.125462518416E+01
  1.142696404000E+01  1.160713417307E+01  1.181990106586E+01  1.203262799296E+01
  1.227787011685E+01  1.251060138360E+01  1.277253452314E+01  1.306727515021E+01
  1.339885310512E+01  1.369364298279E+01  1.401741128296E+01  1.437291557808E+01
  1.476314984129E+01  1.519135697790E+01  1.566103949347E+01  1.604277723001E+01
  1.645165029230E+01  1.688943462729E+01  1.735799000180E+01  1.785925662135E+01
  1.839524964469E+01  1.896805110810E+01  1.957979868955E+01  2.023267064811E+01
  2.092886617057E+01  2.167058024495E+01  2.219141324579E+01  2.273406098684E+01
  2.329912583115E+01  2.388718244579E+01  2.449876992039E+01  2.513438286796E+01
  2.579446142110E+01  2.647938003625E+01  2.718943501902E+01  2.792483068715E+01
  2.868566409280E+01  2.947190823515E+01  3.028339370665E+01  3.111978873371E+01
  3.198057759534E+01  3.286503743200E+01  3.377221349330E+01  3.470089291686E+01
  3.564957718439E+01  3.661645346333E+01  3.759936511670E+01  3.859578174809E+01
  3.960276924544E+01  4.061696039517E+01  4.163452675709E+01  4.265115261973E+01
  4.366201199258E+01  4.466174973415E+01  4.564446805843E+01  4.612745168202E+01
  4.660371980198E+01  4.707238093032E+01  4.753250996321E+01  4.798314879647E+01
  4.842330713577E+01  4.885196351547E+01  4.926806653950E+01  4.967053635817E+01
  5.005826639397E+01  5.043012532915E+01  5.078495936746E+01  5.112159478120E+01
  5.143884075411E+01  5.173549252916E+01  5.201033486897E+01  5.226214583480E+01
  5.248970088830E+01  5.269177731759E+01  5.286715898719E+01  5.301464140836E+01
  5.313303712320E+01  5.322118139288E+01  5.327793817643E+01  5.330220638291E+01
  5.329292637546E+01  5.324908670165E+01  5.316973101969E+01  5.305396518570E+01
  5.290096446224E+01  5.270998080340E+01  5.248035016700E+01  5.221149979953E+01
  5.190295543468E+01  5.155434834200E+01  5.116542215777E+01  5.073603942660E+01
  5.026618777875E+01  4.975598566556E+01  4.920568757324E+01  4.861568863416E+01
  4.798652855440E+01  4.731889477714E+01  4.661362480317E+01  4.587170759305E+01
  4.509428397968E+01  4.428264602593E+01  4.343823526893E+01  4.256263980139E+01
  4.165759015030E+01  4.072495392465E+01  3.976672921693E+01  3.878503675690E+01
  3.778211083150E+01  3.676028900096E+01  3.572200065799E+01  3.466975449449E+01
  3.360612495786E+01  3.253373779685E+01  3.145525481372E+01  3.037335795652E+01
  2.929073290012E+01  2.821005227883E+01  2.713395874495E+01  2.606504803755E+01
  2.500585225229E+01  2.395882350713E+01  2.292631819968E+01  2.191058204860E+01
  2.091373610564E+01  1.993776391422E+01  1.898449997753E+01  1.805561968120E+01
  1.715263079603E+01  1.627686666270E+01  1.542948113494E+01  1.461144533056E+01
  1.382354621096E+01  1.306638698114E+01  1.234038927321E+01  1.164579704903E+01
  1.098268213178E+01  1.035095125251E+01  9.750354478005E+00  9.180494868949E+00
  8.640839205258E+00  8.130729606520E+00  7.649395871458E+00  7.195968360131E+00
  6.769491246306E+00  6.368935974432E+00  5.993214765393E+00  5.641194026806E+00
  5.311707536421E+00  5.003569280109E+00  4.715586855299E+00  4.446578024003E+00
  4.195387815187E+00  3.960895379194E+00  3.742020485253E+00  3.537728482451E+00
  3.347034384296E+00  3.169005823551E+00  3.002764913336E+00  2.847489017165E+00
  2.702410454758E+00  2.566815191361E+00  2.440039553117E+00  2.321462401175E+00
  2.210495777002E+00  2.106584583861E+00  2.009205910488E+00  1.917868357753E+00
  1.832111254623E+00  1.751503779507E+00  1.675644001656E+00  1.604157855977E+00
  1.536698063469E+00  1.472943008445E+00  1.412595582869E+00  1.355382007372E+00
  1.301050637877E+00  1.249370766195E+00  1.200131422361E+00  1.153140185951E+00
  1.108222013016E+00  1.065218084645E+00  1.023984682549E+00  9.843920963468E-01
  9.463235666056E-01  9.096742669753E-01  8.743503281368E-01  8.402679056549E-01
  8.073522932601E-01  7.755370825596E-01  7.447633697071E-01  7.149790091436E-01
  6.861379141579E-01  6.581994036955E-01  6.311275945770E-01  6.048908380544E-01
  5.794611994458E-01  5.548139794242E-01  5.309272754145E-01  5.077815814444E-01
  4.853594247200E-01  4.636450371364E-01  4.426240598957E-01  4.222832793807E-01
  4.026103924247E-01  3.835937991224E-01  3.652224213437E-01  3.474855451505E-01
  3.303726852753E-01  3.138734700614E-01  2.979775450545E-01  2.826744936821E-01
  2.679537734522E-01  2.538046661724E-01  2.402162407669E-01  2.271773273395E-01
  2.146765012045E-01  2.027020756866E-01  1.912421025649E-01  1.802843791145E-01
  1.698164607748E-01  1.598256785504E-01  1.502991603217E-01  1.412238553179E-01
  1.325865610704E-01  1.243739522346E-01  1.165726107269E-01  1.091690567019E-01
  1.021497799069E-01  9.550127106209E-02  8.921005292090E-02  8.326271072413E-02
  7.764592180170E-02  7.234648411092E-02  6.735134353376E-02  6.264761978436E-02
  5.822263080458E-02  5.406391554818E-02  5.015925507507E-02  4.649669189561E-02
  4.306454752169E-02  3.985143819648E-02  3.684628878947E-02  3.403834485613E-02
  3.141718287466E-02  2.897271868409E-02  2.669521415970E-02  2.457528217238E-02
  2.260388988934E-02  2.077236048278E-02  1.907237332218E-02  1.749596273392E-02
  1.603551541836E-02  1.468376662070E-02  1.343379515607E-02  1.227901739279E-02
  1.121318029948E-02  1.023035366261E-02  9.324921580412E-03  8.491573337556E-03
  7.725293762170E-03  7.021353163346E-03  6.375296942701E-03  5.782934968538E-03
  5.240330795478E-03  4.743790806377E-03  4.289853346941E-03  3.875277916918E-03
  3.497034475106E-03  3.152292908788E-03  2.838412711686E-03  2.552932908222E-03
  2.293562255723E-03  2.058169750483E-03  1.844775458100E-03  1.651541683480E-03
  1.476764491258E-03  1.318865583166E-03  1.176384535180E-03  1.047971393922E-03
  9.323796290292E-04  8.284594357498E-04  7.351513801091E-04  6.514803773906E-04
  5.765499935027E-04  5.095370579304E-04  4.496865764119E-04  3.963069311694E-04
  3.487653564285E-04  3.064836770390E-04  2.689342982256E-04  2.356364348133E-04
  2.061525686543E-04  1.800851234155E-04  1.570733463281E-04  1.367903869533E-04
  1.189405634532E-04  1.032568072745E-04  8.949827753757E-05  7.744813678337E-05
  6.691148005771E-05  5.771340960634E-05  4.969724772615E-05  4.272288056237E-05
  3.666522586821E-05  3.141281795451E-05  2.686650325740E-05  2.293824014473E-05
  1.954999677201E-05  1.663274098704E-05  1.412551647287E-05  1.197459951223E-05
  1.013273095458E-05  8.558418169597E-06  7.215301979113E-06  6.071583771963E-06
  5.099508223378E-06  4.274897260562E-06  3.576731138661E-06  2.986772714778E-06
  2.489231231038E-06  2.070462139475E-06  1.718699720646E-06  1.423819463015E-06
  1.177127380286E-06  9.711736479815E-07  7.995881377337E-07  6.569356173352E-07
  5.385885658342E-07  4.406157255114E-07  3.596846759898E-07  2.929768698310E-07
  2.381137136243E-07  1.930924137829E-07  1.562304321003E-07  1.261175127595E-07
  1.015743501719E-07  8.161706604346E-08  6.542675477276E-08  5.232343906236E-08
  4.174385289136E-08  3.322253717634E-08  2.637579499534E-08  2.088810860852E-08
  1.650067013181E-08  1.300172204524E-08  1.021844317816E-08  8.010150823744E-09
  6.262620593106E-09  4.883352903472E-09  3.797638961279E-09  2.945300084553E-09
  2.277992520260E-09  1.756985839853E-09  1.351336805294E-09  1.036392531114E-09
  7.925670471270E-10  6.043441916149E-10  4.594673173216E-10  3.482827348725E-10
  2.632092955646E-10  1.983111572000E-10  1.489546973133E-10  1.115338388854E-10
  8.325082327912E-11  6.194178140957E-11  4.593838481545E-11  3.395846211786E-11
  2.501979416819E-11  1.837239675150E-11  1.344550055142E-11  9.806176252202E-12
  7.127155420575E-12  5.161888287919E-12  3.725277246948E-12  2.678846190301E-12
  1.919364485866E-12  1.370151863683E-12  9.744563014717E-13  6.904290181463E-13
  4.873254104808E-13  3.426435277400E-13  2.399768309408E-13  1.674090762732E-13
  1.163190741010E-13  8.049413021847E-14  5.547504406776E-14  3.807411667055E-14
  2.602190322001E-14  1.770937995561E-14  1.200053200843E-14  8.096698809057E-15
  5.438799259688E-15  3.637161445818E-15  2.421381907291E-15  1.604654541667E-15
  1.058506280332E-15  6.949839281307E-16  4.541517821156E-16  2.953571093477E-16
  1.911564226135E-16  1.231118954151E-16  7.889601933131E-17  5.030696225988E-17
  3.191484033651E-17  2.014290872669E-17  1.264705875657E-17  7.898915656590E-18
  4.907140633535E-18  3.032107981414E-18  1.863320580657E-18  1.138750266179E-18
  6.920511580737E-19  4.182028761929E-19  2.512723201755E-19  1.500997733520E-19
  8.913763197566E-20  5.262039449768E-20  0.000000000000E+00  0.000000000000E+00
  0.000000000000E+00  0.000000000000E+00  0.000000000000E+00  0.000000000000E+00
  0.000000000000E+00  0.000000000000E+00  0.000000000000E+00  0.000000000000E+00
  0.000000000000E+00  0.000000000000E+00  0.000000000000E+00  0.000000000000E+00
  0.000000000000E+00  0.000000000000E+00  0.000000000000E+00  0.000000000000E+00
  0.000000000000E+00  0.000000000000E+00  0.000000000000E+00  0.000000000000E+00
  0.000000000000E+00  0.000000000000E+00  0.000000000000E+00  0.000000000000E+00
  0.000000000000E+00
</data>
</radfunc>
</valence-charge>
<pseudocore-charge matching-radius="0.503980289475"
 number-of-continuous-derivatives="4">
<annotation model-charge-form="Teter function with specified parameters" />
<radfunc>
<data npts="290">
  2.767490707366E+02  2.767101542176E+02  2.765938363442E+02  2.763998338224E+02
  2.761302193726E+02  2.757759093352E+02  2.753246819545E+02  2.748084500448E+02
  2.742285920084E+02  2.735531737528E+02  2.727928786166E+02  2.719677121489E+02
  2.709721503521E+02  2.699343740279E+02  2.687127750078E+02  2.674956098184E+02
  2.660975445150E+02  2.647758201187E+02  2.632940086082E+02  2.616337663094E+02
  2.597749281805E+02  2.581300912206E+02  2.563318205196E+02  2.543670377175E+02
  2.522218083499E+02  2.498813428133E+02  2.473300129248E+02  2.452682803571E+02
  2.430715002739E+02  2.407322480583E+02  2.382429101399E+02  2.355957171968E+02
  2.327827852164E+02  2.297961654319E+02  2.266279042105E+02  2.232701140217E+02
  2.197150566458E+02  2.159552397899E+02  2.133313979858E+02  2.106113704962E+02
  2.077932707415E+02  2.048753459237E+02  2.018559985753E+02  1.987338096809E+02
  1.955075633829E+02  1.921762732694E+02  1.887392102176E+02  1.851959317445E+02
  1.815463127902E+02  1.777905778229E+02  1.739293341218E+02  1.699636060519E+02
  1.658948700977E+02  1.617250903717E+02  1.574567542591E+02  1.530929077960E+02
  1.486371903165E+02  1.440938678296E+02  1.394678645181E+02  1.347647916737E+02
  1.299909733053E+02  1.251534675839E+02  1.202600832117E+02  1.153193897372E+02
  1.103407207791E+02  1.053341690707E+02  1.003105722120E+02  9.779596643659E+01
  9.528148800075E+01  9.276868822412E+01  9.025915823281E+01  8.775452712355E+01
  8.525645990835E+01  8.276665523332E+01  8.028684286591E+01  7.781878094559E+01
  7.536425299390E+01  7.292506468095E+01  7.050304034635E+01  6.810001927407E+01
  6.571785172178E+01  6.335839470713E+01  6.102350755466E+01  5.871504720912E+01
  5.643486332260E+01  5.418479312507E+01  5.196665609001E+01  4.978224840885E+01
  4.763333729062E+01  4.552165510527E+01  4.344889339189E+01  4.141669675547E+01
  3.942665667840E+01  3.748030527564E+01  3.557910902511E+01  3.372446250713E+01
  3.191768218973E+01  3.016000029851E+01  2.845255881256E+01  2.679640362950E+01
  2.519247894504E+01  2.364162189384E+01  2.214455749979E+01  2.070189398484E+01
  1.931411848619E+01  1.798159323147E+01  1.670455222150E+01  1.548309846917E+01
  1.431720184132E+01  1.320669754872E+01  1.215128532610E+01  1.115052934101E+01
  1.020385886583E+01  9.310569742472E+00  8.469826663634E+00  7.680666287948E+00
  6.942001199436E+00  6.252624713660E+00  5.611216524730E+00  5.016349178138E+00
  4.466495345000E+00  3.960035863321E+00  3.495268501740E+00  3.070417390858E+00
  2.683643056929E+00  2.333052982524E+00  2.016712608974E+00  1.732656686104E+00
  1.478900866292E+00  1.253453432278E+00  1.054327041810E+00  8.795503671934E-01
  7.271795044248E-01  5.953090249591E-01  4.820825435245E-01  3.857026778332E-01
  3.044402807139E-01  2.366428321605E-01  1.807418880807E-01  1.352594941256E-01
  9.881348679294E-02  7.012161989617E-02  4.800447224989E-02  3.138711178783E-02
  1.929951194590E-02  1.087573761690E-02  5.351939852803E-03  2.063220247184E-03
  4.394470274084E-04  1.247528084258E-07  3.484375704330E-04  1.164601654671E-03
  2.198675211125E-03  3.262983770998E-03  4.224324026650E-03  4.996110844928E-03
  5.530629142262E-03  5.811544949455E-03  5.846818319178E-03  5.662144979342E-03
  5.295034217716E-03  4.789607964114E-03  4.192181131759E-03  3.547656834467E-03
  2.896743058937E-03  2.273970756737E-03  1.706468169089E-03  1.213423527169E-03
  8.061490262121E-04  4.886439727683E-04  2.585448955281E-04  1.083456162716E-04
  2.677096833679E-05  1.939161285953E-07  1.399687307059E-05  5.379335970489E-05
  1.064448579514E-04  1.608286637260E-04  2.083344351634E-04  2.430886271322E-04
  2.619257644997E-04  2.641423196159E-04  2.510818101117E-04  2.256078920950E-04
  1.915253100924E-04  1.530065852809E-04  1.140756818373E-04  7.818936560687E-05
  4.794365371173E-05  2.491796845586E-05  9.654785059427E-06  1.759110275068E-06
  9.130000355509E-08  3.019485975989E-06  8.694813591642E-06  1.531391984298E-05
  2.133825333850E-05  2.564817005880E-05  2.762008901449E-05  2.712600303645E-05
  2.446490007396E-05  2.024387400201E-05  1.523190043841E-05  1.021086236507E-05
  5.846383429006E-06  2.595835981327E-06  6.634636842480E-07  4.140171177196E-09
  0.000000000000E+00  0.000000000000E+00  0.000000000000E+00  0.000000000000E+00
  0.000000000000E+00  0.000000000000E+00  0.000000000000E+00  0.000000000000E+00
  0.000000000000E+00  0.000000000000E+00  0.000000000000E+00  0.000000000000E+00
  0.000000000000E+00  0.000000000000E+00  0.000000000000E+00  0.000000000000E+00
  0.000000000000E+00  0.000000000000E+00  0.000000000000E+00  0.000000000000E+00
  0.000000000000E+00  0.000000000000E+00  0.000000000000E+00  0.000000000000E+00
  0.000000000000E+00  0.000000000000E+00  0.000000000000E+00  0.000000000000E+00
  0.000000000000E+00  0.000000000000E+00  0.000000000000E+00  0.000000000000E+00
  0.000000000000E+00  0.000000000000E+00  0.000000000000E+00  0.000000000000E+00
  0.000000000000E+00  0.000000000000E+00  0.000000000000E+00  0.000000000000E+00
  0.000000000000E+00  0.000000000000E+00  0.000000000000E+00  0.000000000000E+00
  0.000000000000E+00  0.000000000000E+00  0.000000000000E+00  0.000000000000E+00
  0.000000000000E+00  0.000000000000E+00  0.000000000000E+00  0.000000000000E+00
  0.000000000000E+00  0.000000000000E+00  0.000000000000E+00  0.000000000000E+00
  0.000000000000E+00  0.000000000000E+00  0.000000000000E+00  0.000000000000E+00
  0.000000000000E+00  0.000000000000E+00  0.000000000000E+00  0.000000000000E+00
  0.000000000000E+00  0.000000000000E+00  0.000000000000E+00  0.000000000000E+00
  0.000000000000E+00  0.000000000000E+00  0.000000000000E+00  0.000000000000E+00
  0.000000000000E+00  0.000000000000E+00  0.000000000000E+00  0.000000000000E+00
  0.000000000000E+00  0.000000000000E+00  0.000000000000E+00  0.000000000000E+00
  0.000000000000E+00  0.000000000000E+00
</data>
</radfunc>
</pseudocore-charge>
<semilocal-potentials set="scalar_relativistic">
<slps n="4" l="s" rc="1.30874354285" eref="-6.04114103474">
<radfunc>
<data npts="290">
 -2.732343588147E+01 -2.732453380567E+01 -2.732781504679E+01 -2.733328659370E+01
 -2.734088833714E+01 -2.735087395061E+01 -2.736358424629E+01 -2.737811630177E+01
 -2.739442759075E+01 -2.741341112764E+01 -2.743475981185E+01 -2.745790551263E+01
 -2.748579668391E+01 -2.751483074891E+01 -2.754895548557E+01 -2.758290007517E+01
 -2.762182006244E+01 -2.765854615776E+01 -2.769964081649E+01 -2.774558331853E+01
 -2.779689468767E+01 -2.784218652578E+01 -2.789158199188E+01 -2.794540555860E+01
 -2.800399737235E+01 -2.806771170663E+01 -2.813691473118E+01 -2.819264431855E+01
 -2.825183233497E+01 -2.831463932402E+01 -2.838122473845E+01 -2.845174523982E+01
 -2.852635270097E+01 -2.860519187795E+01 -2.868839771606E+01 -2.877609225381E+01
 -2.886838108739E+01 -2.896534935821E+01 -2.903262544559E+01 -2.910201926758E+01
 -2.917353479603E+01 -2.924716856055E+01 -2.932290880979E+01 -2.940073461727E+01
 -2.948061493056E+01 -2.956250756349E+01 -2.964635813109E+01 -2.973209892779E+01
 -2.981964774980E+01 -2.990890666334E+01 -2.999976072134E+01 -3.009207663163E+01
 -3.018570138139E+01 -3.028046082291E+01 -3.037615822763E+01 -3.047257281643E+01
 -3.056945827575E+01 -3.066654127086E+01 -3.076351996928E+01 -3.086006258947E+01
 -3.095580599178E+01 -3.105035433122E+01 -3.114327779360E+01 -3.123411143936E+01
 -3.132235418172E+01 -3.140746792833E+01 -3.148887691815E+01 -3.152800179184E+01
 -3.156596728756E+01 -3.160269069105E+01 -3.163808690190E+01 -3.167206844542E+01
 -3.170454549028E+01 -3.173542587205E+01 -3.176461512310E+01 -3.179201650906E+01
 -3.181753107223E+01 -3.184105768221E+01 -3.186249309403E+01 -3.188173201414E+01
 -3.189866717441E+01 -3.191318941455E+01 -3.192518777311E+01 -3.193454958721E+01
 -3.194116060142E+01 -3.194490508569E+01 -3.194566596264E+01 -3.194332494435E+01
 -3.193776267849E+01 -3.192885890408E+01 -3.191649261666E+01 -3.190054224293E+01
 -3.188088582455E+01 -3.185740121114E+01 -3.182996626198E+01 -3.179845905622E+01
 -3.176275811118E+01 -3.172274260819E+01 -3.167829262540E+01 -3.162928937703E+01
 -3.157561545812E+01 -3.151715509406E+01 -3.145379439401E+01 -3.138542160711E+01
 -3.131192738044E+01 -3.123320501759E+01 -3.114915073663E+01 -3.105966392623E+01
 -3.096464739860E+01 -3.086400763809E+01 -3.075765504418E+01 -3.064550416764E+01
 -3.052747393897E+01 -3.040348788805E+01 -3.027347435457E+01 -3.013736668865E+01
 -2.999510344182E+01 -2.984662854870E+01 -2.969189150024E+01 -2.953084751034E+01
 -2.936345767785E+01 -2.918968914739E+01 -2.900951527297E+01 -2.882291578983E+01
 -2.862987700113E+01 -2.843039198775E+01 -2.822446085107E+01 -2.801209100075E+01
 -2.779329750187E+01 -2.756810349823E+01 -2.733654073178E+01 -2.709865018144E+01
 -2.685448284834E+01 -2.660410071895E+01 -2.634757794204E+01 -2.608500226085E+01
 -2.581647674748E+01 -2.554212189257E+01 -2.526207810974E+01 -2.497650872091E+01
 -2.468560349502E+01 -2.438958281846E+01 -2.408870258099E+01 -2.378325986378E+01
 -2.347359951769E+01 -2.316012171700E+01 -2.284329056719E+01 -2.252364383181E+01
 -2.220180382339E+01 -2.187848947383E+01 -2.155452956015E+01 -2.123087701085E+01