<?xml version="1.0" encoding="UTF-8" ?>
<psml version="1.1" energy_unit="hartree" length_unit="bohr"
 uuid="59235c80-be45-11e7-4e1a-63112dfb3dd8"
 xmlns="http://esl.cecam.org/PSML/ns/1.1">
<provenance creator="ONCVPSP-3.3.0+psml-3.3.0-73 (scalar-relativistic)"
 date="2017-10-31">
<annotation action="semilocal-pseudopotential-generation"
 action-cont="projectors-generation" />
<input-file name="oncvpsp-input">
<![CDATA[# atsym z nc nv iexc psfile
Te 52 8 3 4 upf
# n l f
1 0 2.0
2 0 2.0
2 1 6.0
3 0 2.0
3 1 6.0
3 2 10.0
4 0 2.0
4 1 6.0
4 2 10.0
5 0 2.0
5 1 4.0
# lmax
2
# l rc ep ncon nbas qcut
0 2.25 0.0 4 8 4.2
1 1.9 0.0 4 8 4.8
2 1.8 0.0 4 9 8.4
# lloc lpopt rc5 dvloc0
4 5 1.8 0.0
# l nproj debl
0 2 3.0
1 2 3.5
2 2 1.6
# icmod fcfact
3 5 1.43
# epsh1 epsh2 depsh
-12.0 12.0 0.02
# rlmax drl
6.0 0.01
 0
]]>
</input-file>
</provenance>
<pseudo-atom-spec atomic-label="Te" atomic-number="52" z-pseudo="16"
 flavor="Hamann&apos;s oncvpsp" relativity="scalar" spin-dft="no"
 core-corrections="yes">
<annotation pseudo-energy="-93.2400177536" />
<exchange-correlation>
<annotation oncvpsp-xc-code="4" oncvpsp-xc-type="GGA -- Perdew-Burke-Ernzerhof" />
<libxc-info number-of-functionals="2">
<functional name="Perdew, Burke &amp; Ernzerhof (GGA)" type="exchange" id="101" />
<functional name="Perdew, Burke &amp; Ernzerhof (GGA)" type="correlation"
 id="130" />
</libxc-info>
</exchange-correlation>
<valence-configuration total-valence-charge="16">
<shell n="4" l="d" occupation="10" />
<shell n="5" l="s" occupation="2" />
<shell n="5" l="p" occupation="4" />
</valence-configuration>
</pseudo-atom-spec>
<grid npts="457">
<annotation type="sampled from oncvpsp log grid"
 recipe="r(i:1..N) = r1*exp(a*(i-1)) + r=0; resampled"
 recipe-cont="r1: scale; a: step" scale="0.961538461538E-05"
 step="0.119285708653E-01" delta="0.500000000000E-02" rmax="44.1677972533" />
<grid-data>
  0.000000000000E+00  5.043542968859E-03  1.007408127726E-02  1.511272833334E-02
  2.012218676581E-02  2.524090447309E-02  3.054872670761E-02  3.567301166182E-02
  4.067479879938E-02  4.582796137488E-02  5.102172656014E-02  5.613054395614E-02
  6.175090843111E-02  6.712849932167E-02  7.297439884964E-02  7.838872507068E-02
  8.420476653556E-02  8.937977120117E-02  9.487281811536E-02  1.007034533227E-01
  1.068924241165E-01  1.121163565855E-01  1.175955875068E-01  1.233425935539E-01
  1.293704611469E-01  1.356929162517E-01  1.423243556345E-01  1.475097624955E-01
  1.528840930596E-01  1.584542305217E-01  1.642273088569E-01  1.702107219580E-01
  1.764121331045E-01  1.828394847779E-01  1.895010088340E-01  1.964052370456E-01
  2.035610120299E-01  2.109774985736E-01  2.160713392991E-01  2.212881657152E-01
  2.266309471882E-01  2.321027247771E-01  2.377066129641E-01  2.434458014276E-01
  2.493235568572E-01  2.553432248140E-01  2.615082316339E-01  2.678220863785E-01
  2.742883828320E-01  2.809108015471E-01  2.876931119396E-01  2.946391744343E-01
  3.017529426618E-01  3.090384657095E-01  3.164998904256E-01  3.241414637800E-01
  3.319675352815E-01  3.399825594533E-01  3.481910983688E-01  3.565978242478E-01
  3.652075221164E-01  3.740250925304E-01  3.830555543645E-01  3.923040476690E-01
  4.017758365960E-01  4.114763123947E-01  4.214109964812E-01  4.264679284390E-01
  4.315855435802E-01  4.367645701032E-01  4.420057449444E-01  4.473098138838E-01
  4.526775316504E-01  4.581096620302E-01  4.636069779745E-01  4.691702617102E-01
  4.748003048508E-01  4.804979085090E-01  4.862638834111E-01  4.920990500120E-01
  4.980042386121E-01  5.039802894755E-01  5.100280529492E-01  5.161483895846E-01
  5.223421702596E-01  5.286102763027E-01  5.349535996183E-01  5.413730428138E-01
  5.478695193275E-01  5.544439535595E-01  5.610972810022E-01  5.678304483742E-01
  5.746444137547E-01  5.815401467198E-01  5.885186284804E-01  5.955808520222E-01
  6.027278222464E-01  6.099605561134E-01  6.172800827867E-01  6.246874437802E-01
  6.321836931055E-01  6.397698974228E-01  6.474471361919E-01  6.552165018262E-01
  6.630790998481E-01  6.710360490463E-01  6.790884816348E-01  6.872375434144E-01
  6.954843939354E-01  7.038302066626E-01  7.122761691426E-01  7.208234831723E-01
  7.294733649704E-01  7.382270453500E-01  7.470857698942E-01  7.560507991330E-01
  7.651234087225E-01  7.743048896272E-01  7.835965483027E-01  7.929997068824E-01
  8.025157033650E-01  8.121458918053E-01  8.218916425070E-01  8.317543422171E-01
  8.417353943237E-01  8.518362190556E-01  8.620582536842E-01  8.724029527285E-01
  8.828717881612E-01  8.934662496191E-01  9.041878446146E-01  9.150380987499E-01
  9.260185559349E-01  9.371307786062E-01  9.483763479494E-01  9.597568641248E-01
  9.712739464943E-01  9.829292338523E-01  9.947243846585E-01  1.006661077274E+00
  1.018741010202E+00  1.030965902324E+00  1.043337493152E+00  1.055857543070E+00
  1.068527833587E+00  1.081350167590E+00  1.094326369601E+00  1.107458286036E+00
  1.120747785468E+00  1.134196758894E+00  1.147807120001E+00  1.161580805441E+00
  1.175519775106E+00  1.189626012407E+00  1.203901524556E+00  1.218348342851E+00
  1.232968522965E+00  1.247764145241E+00  1.262737314984E+00  1.277890162763E+00
  1.293224844717E+00  1.308743542853E+00  1.324448465367E+00  1.340341846952E+00
  1.356425949115E+00  1.372703060505E+00  1.389175497231E+00  1.405845603197E+00
  1.422715750436E+00  1.439788339441E+00  1.457065799514E+00  1.474550589108E+00
  1.492245196178E+00  1.510152138532E+00  1.528273964194E+00  1.546613251765E+00
  1.565172610786E+00  1.583954682115E+00  1.602962138301E+00  1.622197683960E+00
  1.641664056168E+00  1.661364024842E+00  1.681300393140E+00  1.701475997858E+00
  1.721893709832E+00  1.742556434350E+00  1.763467111562E+00  1.784628716901E+00
  1.806044261504E+00  1.827716792642E+00  1.849649394153E+00  1.871845186883E+00
  1.894307329126E+00  1.917039017075E+00  1.940043485280E+00  1.963324007103E+00
  1.986883895189E+00  2.010726501931E+00  2.034855219954E+00  2.059273482594E+00
  2.083984764385E+00  2.108992581557E+00  2.134300492536E+00  2.159912098446E+00
  2.185831043628E+00  2.212061016151E+00  2.238605748345E+00  2.265469017325E+00
  2.292654645533E+00  2.320166501280E+00  2.348008499295E+00  2.376184601287E+00
  2.404698816502E+00  2.433555202300E+00  2.462757864728E+00  2.492310959104E+00
  2.522218690614E+00  2.552485314901E+00  2.583115138680E+00  2.614112520344E+00
  2.645481870588E+00  2.677227653035E+00  2.709354384872E+00  2.741866637490E+00
  2.774769037140E+00  2.808066265586E+00  2.841763060773E+00  2.875864217502E+00
  2.910374588112E+00  2.945299083169E+00  2.980642672167E+00  3.016410384233E+00
  3.052607308844E+00  3.089238596550E+00  3.126309459709E+00  3.163825173225E+00
  3.201791075304E+00  3.240212568208E+00  3.279095119026E+00  3.318444260454E+00
  3.358265591580E+00  3.398564778679E+00  3.439347556023E+00  3.480619726695E+00
  3.522387163416E+00  3.564655809377E+00  3.607431679089E+00  3.650720859238E+00
  3.694529509549E+00  3.738863863664E+00  3.783730230028E+00  3.829134992788E+00
  3.875084612701E+00  3.921585628054E+00  3.968644655590E+00  4.016268391458E+00
  4.064463612155E+00  4.113237175501E+00  4.162596021607E+00  4.212547173866E+00
  4.263097739953E+00  4.314254912832E+00  4.366025971786E+00  4.418418283447E+00
  4.471439302849E+00  4.525096574483E+00  4.579397733377E+00  4.634350506177E+00
  4.689962712251E+00  4.746242264798E+00  4.803197171976E+00  4.860835538040E+00
  4.919165564496E+00  4.978195551270E+00  5.037933897885E+00  5.098389104660E+00
  5.159569773916E+00  5.221484611203E+00  5.284142426537E+00  5.347552135656E+00
  5.411722761284E+00  5.476663434419E+00  5.542383395632E+00  5.608891996380E+00
  5.676198700336E+00  5.744313084740E+00  5.813244841757E+00  5.883003779858E+00
  5.953599825217E+00  6.025043023119E+00  6.097343539397E+00  6.170511661869E+00
  6.244557801812E+00  6.319492495433E+00  6.395326405379E+00  6.472070322243E+00
  6.549735166110E+00  6.628331988103E+00  6.707871971961E+00  6.788366435624E+00
  6.869826832852E+00  6.952264754846E+00  7.035691931904E+00  7.120120235087E+00
  7.205561677908E+00  7.292028418043E+00  7.379532759059E+00  7.468087152168E+00
  7.557704197994E+00  7.648396648370E+00  7.740177408151E+00  7.833059537048E+00
  7.927056251493E+00  8.022180926511E+00  8.118447097629E+00  8.215868462801E+00
  8.314458884354E+00  8.414232390966E+00  8.515203179658E+00  8.617385617814E+00
  8.720794245228E+00  8.825443776170E+00  8.931349101484E+00  9.038525290702E+00
  9.146987594191E+00  9.256751445321E+00  9.367832462665E+00  9.480246452217E+00
  9.594009409643E+00  9.709137522559E+00  9.825647172830E+00  9.943554938904E+00
  1.006287759817E+01  1.018363212935E+01  1.030583571490E+01  1.042950574348E+01
  1.055465981240E+01  1.068131573015E+01  1.080949151891E+01  1.093920541714E+01
  1.107047588214E+01  1.120332159273E+01  1.133776145184E+01  1.147381458927E+01
  1.161150036434E+01  1.175083836871E+01  1.189184842913E+01  1.203455061028E+01
  1.217896521761E+01  1.232511280022E+01  1.247301415382E+01  1.262269032367E+01
  1.277416260755E+01  1.292745255884E+01  1.308258198955E+01  1.323957297342E+01
  1.339844784910E+01  1.355922922329E+01  1.372193997397E+01  1.388660325366E+01
  1.405324249270E+01  1.422188140261E+01  1.439254397945E+01  1.456525450720E+01
  1.474003756129E+01  1.491691801202E+01  1.509592102817E+01  1.527707208050E+01
  1.546039694547E+01  1.564592170882E+01  1.583367276932E+01  1.602367684255E+01
  1.621596096466E+01  1.641055249624E+01  1.660747912619E+01  1.680676887571E+01
  1.700845010222E+01  1.721255150344E+01  1.741910212148E+01  1.762813134694E+01
  1.783966892311E+01  1.805374495018E+01  1.827038988959E+01  1.848963456826E+01
  1.871151018308E+01  1.893604830528E+01  1.916328088494E+01  1.939324025556E+01
  1.962595913863E+01  1.986147064829E+01  2.009980829607E+01  2.034100599562E+01
  2.058509806757E+01  2.083211924438E+01  2.108210467531E+01  2.133508993142E+01
  2.159111101059E+01  2.185020434272E+01  2.211240679483E+01  2.237775567637E+01
  2.264628874449E+01  2.291804420942E+01  2.319306073993E+01  2.347137746881E+01
  2.375303399844E+01  2.403807040642E+01  2.432652725130E+01  2.461844557831E+01
  2.491386692525E+01  2.521283332836E+01  2.551538732830E+01  2.582157197624E+01
  2.613143083995E+01  2.644500801003E+01  2.676234810615E+01  2.708349628342E+01
  2.740849823883E+01  2.773740021769E+01  2.807024902030E+01  2.840709200855E+01
  2.874797711265E+01  2.909295283800E+01  2.944206827206E+01  2.979537309132E+01
  3.015291756842E+01  3.051475257924E+01  3.088092961019E+01  3.125150076551E+01
  3.162651877470E+01  3.200603700000E+01  3.239010944400E+01  3.277879075732E+01
  3.317213624641E+01  3.357020188137E+01  3.397304430394E+01  3.438072083559E+01
  3.479328948562E+01  3.521080895945E+01  3.563333866696E+01  3.606093873096E+01
  3.649366999573E+01  3.693159403568E+01  3.737477316411E+01  3.782327044208E+01
  3.827714968739E+01  3.873647548363E+01  3.920131318944E+01  3.967172894771E+01
  4.014778969508E+01  4.062956317142E+01  4.111711792948E+01  4.161052334464E+01
  4.210984962477E+01  4.261516782027E+01  4.312654983411E+01  4.364406843212E+01
  4.416779725331E+01
</grid-data>
</grid>
<valence-charge total-charge="16" is-unscreening-charge="yes"
 rescaled-to-z-pseudo="no">
<radfunc>
<data npts="457">
  1.236530428627E-03  1.240059662769E-03  1.254451475990E-03  1.291273913741E-03
  1.369078004153E-03  1.518456485843E-03  1.786274267743E-03  2.199405051841E-03
  2.799482002601E-03  3.680216883263E-03  4.906103880956E-03  6.518226731123E-03
  8.854446493821E-03  1.174639811606E-02  1.574982304401E-02  2.038536101937E-02
  2.650935474840E-02  3.308807365300E-02  4.137935255273E-02  5.182403796753E-02
  6.497371752151E-02  7.789859137267E-02  9.342151380309E-02  1.120536376946E-01
  1.344027108790E-01  1.611899956306E-01  1.932697061778E-01  2.214033038472E-01
  2.535690399441E-01  2.903215348683E-01  3.322860752358E-01  3.801662746515E-01
  4.347522351824E-01  4.969291520460E-01  5.676862712899E-01  6.481260691560E-01
  7.394734709550E-01  8.430848651288E-01  9.197053952420E-01  1.002918100780E+00
  1.093232507003E+00  1.191188844187E+00  1.297358535328E+00  1.412344435085E+00
  1.536780767299E+00  1.671332701970E+00  1.816695505708E+00  1.973593192574E+00
  2.142776594859E+00  2.325020765995E+00  2.521121620462E+00  2.731891708622E+00
  2.958155017969E+00  3.200740686879E+00  3.460475512694E+00  3.738175133662E+00
  4.034633764115E+00  4.350612365199E+00  4.686825140013E+00  5.043924253083E+00
  5.422482690539E+00  5.822975200161E+00  6.245757280696E+00  6.691042228491E+00
  7.158876297774E+00  7.649112089720E+00  8.161380355856E+00  8.425593372840E+00
  8.695060484033E+00  8.969659837228E+00  9.249250030719E+00  9.533669143433E+00
  9.822733771790E+00  1.011623807924E+01  1.041395286491E+01  1.071562465852E+01
  1.102097484900E+01  1.132969885529E+01  1.164146534797E+01  1.195591553110E+01
  1.227266249448E+01  1.259129064658E+01  1.291135523956E+01  1.323238199770E+01
  1.355386686153E+01  1.387527585995E+01  1.419604512343E+01  1.451558105105E+01
  1.483326064499E+01  1.514843202565E+01  1.546041514060E+01  1.576850268084E+01
  1.607196121672E+01  1.637003256615E+01  1.666193540654E+01  1.694686714115E+01
  1.722400602964E+01  1.749251359085E+01  1.775153728471E+01  1.800021347803E+01
  1.823767069685E+01  1.846303316589E+01  1.867542463260E+01  1.887397247066E+01
  1.905781205435E+01  1.922609139194E+01  1.937797600218E+01  1.951265401433E+01
  1.962934146755E+01  1.972728778171E+01  1.980578136631E+01  1.986415533063E+01
  1.990179325260E+01  1.991813496020E+01  1.991268227415E+01  1.988500465676E+01
  1.983474470783E+01  1.976162344483E+01  1.966544530188E+01  1.954610277943E+01
  1.940358067513E+01  1.923795982537E+01  1.904942028746E+01  1.883824389346E+01
  1.860481610926E+01  1.834962713606E+01  1.807327219664E+01  1.777645095490E+01
  1.745996602525E+01  1.712472053717E+01  1.677171473121E+01  1.640204157400E+01
  1.601688139304E+01  1.561749554572E+01  1.520521915179E+01  1.478145293366E+01
  1.434765422441E+01  1.390532721893E+01  1.345601255858E+01  1.300127635423E+01
  1.254269876589E+01  1.208186226872E+01  1.162033974538E+01  1.115968255246E+01
  1.070140871386E+01  1.024699139663E+01  9.797847824402E+00  9.355328779813E+00
  8.920708840826E+00  8.495177485907E+00  8.079831190276E+00  7.675666619858E+00
  7.283575011508E+00  6.904337807997E+00  6.538623594511E+00  6.186986360652E+00
  5.849865088622E+00  5.527584645097E+00  5.220357931760E+00  4.928289228258E+00
  4.651378641876E+00  4.389527561141E+00  4.142544996114E+00  3.910154676797E+00
  3.692002772947E+00  3.487666093962E+00  3.296660626219E+00  3.118450267399E+00
  2.952455622625E+00  2.798062735441E+00  2.654631637419E+00  2.521504612903E+00
  2.398014089711E+00  2.283490081708E+00  2.177267124453E+00  2.078690659822E+00
  1.987122838910E+00  1.901947723958E+00  1.822575878880E+00  1.748448343929E+00
  1.679039992894E+00  1.613862271266E+00  1.552465311630E+00  1.494439419141E+00
  1.439415916748E+00  1.387067338416E+00  1.337106960730E+00  1.289287670389E+00
  1.243400178259E+00  1.199269524721E+00  1.156747043142E+00  1.115701324688E+00
  1.076017061824E+00  1.037596334978E+00  1.000357255548E+00  9.642312075474E-01
  9.291586889514E-01  8.950878689345E-01  8.619743485660E-01  8.297799991553E-01
  7.984721440308E-01  7.680227079694E-01  7.384074072223E-01  7.096049894761E-01
  6.815965370250E-01  6.543648451313E-01  6.278938856906E-01  6.021683640683E-01
  5.771734831874E-01  5.528952425027E-01  5.293210105428E-01  5.064394257738E-01
  4.842400294719E-01  4.627131337229E-01  4.418496301288E-01  4.216408296925E-01
  4.020783196697E-01  3.831538377000E-01  3.648591623541E-01  3.471860191952E-01
  3.301260013435E-01  3.136705037168E-01  2.978106698440E-01  2.825373503420E-01
  2.678410720801E-01  2.537120170779E-01  2.401400102045E-01  2.271145147745E-01
  2.146246351637E-01  2.026591256061E-01  1.912064043718E-01  1.802545725669E-01
  1.697914368423E-01  1.598045353437E-01  1.502811662829E-01  1.412084185590E-01
  1.325732039043E-01  1.243622900781E-01  1.165623346759E-01  1.091599191811E-01
  1.021415828858E-01  9.549385640846E-02  8.920329452733E-02  8.325650810278E-02
  7.764019488967E-02  7.234116907174E-02  6.734638937543E-02  6.264298564493E-02
  5.821828378148E-02  5.405982896912E-02  5.015540712626E-02  4.649306453817E-02
  4.306112563953E-02  3.984820892968E-02  3.684324101538E-02  3.403546878788E-02
  3.141446975250E-02  2.897016053982E-02  2.669280363830E-02  2.457301239819E-02
  2.260175436681E-02  2.077035302367E-02  1.907048799310E-02  1.749419381913E-02
  1.603385739408E-02  1.468221413785E-02  1.343234302920E-02  1.227766059337E-02
  1.121191395224E-02  1.022917304392E-02  9.323822117872E-03  8.490550610336E-03
  7.724343501625E-03  7.020471253648E-03  6.374479421291E-03  5.782178026265E-03
  5.239630776359E-03  4.743144206922E-03  4.289256815042E-03  3.874728250311E-03
  3.496528619415E-03  3.151827955183E-03  2.837985894196E-03  2.552541600723E-03
  2.293203968659E-03  2.057842127333E-03  1.844476271649E-03  1.651268831908E-03
  1.476515994091E-03  1.318639577119E-03  1.176179269905E-03  1.047785227703E-03
  9.322110244345E-04  8.283069552690E-04  7.350136817893E-04  6.513562104915E-04
  5.764381941845E-04  5.094365449891E-04  4.495963470758E-04  3.962260569668E-04
  3.486929791382E-04  3.064190047331E-04  2.688766014132E-04  2.355850426926E-04
  2.061068654802E-04  1.800445449885E-04  1.570373766093E-04  1.367585548100E-04
  1.189124395384E-04  1.032320010427E-04  8.947643439823E-05  7.742893539389E-05
  6.689462975474E-05  5.769864797566E-05  4.968433830963E-05  4.271161069992E-05
  3.665540467222E-05  3.140427441382E-05  2.685908446696E-05  2.293180965725E-05
  1.954443306704E-05  1.662793605295E-05  1.412137449674E-05  1.197103567273E-05
  1.012967031241E-05  8.555794650485E-06  7.213057443822E-06  6.069667168196E-06
  5.097874814264E-06  4.273507924623E-06  3.575551736233E-06  2.985773516043E-06
  2.488386400959E-06  2.069749275161E-06  1.718099436836E-06  1.423315021616E-06
  1.176704360112E-06  9.708196510622E-07  7.992925288056E-07  6.566892933362E-07
  5.383837524607E-07  4.404457981082E-07  3.595440022591E-07  2.928606720481E-07
  2.380179482454E-07  1.930136665147E-07  1.561658266762E-07  1.260646318339E-07
  1.015311668972E-07  8.158188503799E-08  6.539816132164E-08  5.230025551578E-08
  4.172510133730E-08  3.320740756808E-08  2.636361800774E-08  2.087833258246E-08
  1.649284154289E-08  1.299546900206E-08  1.021346151780E-08  8.006192427197E-09
  6.259483593054E-09  4.880873500381E-09  3.795684602582E-09  2.943763795730E-09
  2.276788206492E-09  1.756044403130E-09  1.350602944590E-09  1.035822113083E-09
  7.921249518653E-10  6.040025528403E-10  4.592040890126E-10  3.480805272961E-10
  2.630544329174E-10  1.981929169949E-10  1.488646983497E-10  1.114655503091E-10
  8.319917201167E-11  6.190283923340E-11  4.590911975179E-11  3.393654152787E-11
  2.500342932774E-11  1.836022056990E-11  1.343647168834E-11  9.799504188225E-12
  7.122242102699E-12  5.158282840577E-12  3.722640946166E-12  2.676925470993E-12
  1.917970214254E-12  1.369143478252E-12  9.737297232985E-13  6.899074687971E-13
  4.869524642989E-13  3.423778746985E-13  2.397883440237E-13  1.672758698739E-13
  1.162253123219E-13  8.042840037204E-14  5.542915446288E-14  3.804221160993E-14
  2.599981418457E-14  1.769415191764E-14  1.199007905537E-14  8.089554841791E-15
  5.433938293531E-15  3.633868645267E-15  2.419161438567E-15  1.603164025348E-15
  1.057510375596E-15  6.943216144861E-16  4.537134028447E-16  2.950683394078E-16
  1.909671252422E-16  1.229884137533E-16  7.881586998707E-17  5.025520024953E-17
  3.188158130080E-17  2.012164844948E-17  1.263353921677E-17  7.890363780382E-18
  4.901759918909E-18  3.028740775654E-18  1.861224914199E-18  1.137453180240E-18
  6.912528321000E-19  4.177143059371E-19  2.509750312186E-19  1.499199258247E-19
  8.902947063844E-20  5.255573270008E-20  0.000000000000E+00  0.000000000000E+00
  0.000000000000E+00  0.000000000000E+00  0.000000000000E+00  0.000000000000E+00
  0.000000000000E+00  0.000000000000E+00  0.000000000000E+00  0.000000000000E+00
  0.000000000000E+00  0.000000000000E+00  0.000000000000E+00  0.000000000000E+00
  0.000000000000E+00  0.000000000000E+00  0.000000000000E+00  0.000000000000E+00
  0.000000000000E+00  0.000000000000E+00  0.000000000000E+00  0.000000000000E+00
  0.000000000000E+00  0.000000000000E+00  0.000000000000E+00  0.000000000000E+00
  0.000000000000E+00
</data>
</radfunc>
</valence-charge>
<pseudocore-charge matching-radius="0.812145891805"
 number-of-continuous-derivatives="4">
<annotation model-charge-form="Teter function with specified parameters" />
<radfunc>
<data npts="290">
  9.741111759263E+01  9.740531339401E+01  9.738796255499E+01  9.735901493292E+01
  9.731876684327E+01  9.726584311956E+01  9.719838957850E+01  9.712114535472E+01
  9.703428724814E+01  9.693298990465E+01  9.681880131176E+01  9.669467512635E+01
  9.654464619144E+01  9.638793850120E+01  9.620305557897E+01  9.601839177905E+01
  9.580572168787E+01  9.560410876634E+01  9.537742912031E+01  9.512263398055E+01
  9.483632199567E+01  9.458204757236E+01  9.430305004837E+01  9.399700664989E+01
  9.366139338432E+01  9.329347123825E+01  9.289027224719E+01  9.256280061900E+01
  9.221223645270E+01  9.183704708438E+01  9.143561284980E+01  9.100622448565E+01
  9.054708087234E+01  9.005628721238E+01  8.953185375291E+01  8.897169517709E+01
  8.837363080688E+01  8.773538577888E+01  8.728640143549E+01  8.681778575107E+01
  8.632879872262E+01  8.581868436780E+01  8.528667170365E+01  8.473197591170E+01
  8.415379970727E+01  8.355133493155E+01  8.292376438640E+01  8.227026393249E+01
  8.159000487231E+01  8.088215664073E+01  8.014588982593E+01  7.938037954466E+01
  7.858480919570E+01  7.775837461575E+01  7.690028866189E+01  7.600978624396E+01
  7.508612982970E+01  7.412861544385E+01  7.313657918070E+01  7.210940424683E+01
  7.104652854782E+01  6.994745282832E+01  6.881174937003E+01  6.763907124619E+01
  6.642916212379E+01  6.518186659632E+01  6.389714102033E+01  6.324076165836E+01
  6.257506481740E+01  6.190008157649E+01  6.121585219045E+01  6.052242647389E+01
  5.981986418880E+01  5.910823543459E+01  5.838762104016E+01  5.765811295656E+01
  5.691981464951E+01  5.617284149050E+01  5.541732114521E+01  5.465339395806E+01
  5.388121333123E+01  5.310094609691E+01  5.231277288093E+01  5.151688845613E+01
  5.071350208369E+01  4.990283784031E+01  4.908513492946E+01  4.826064797426E+01
  4.742964728999E+01  4.659241913371E+01  4.574926592852E+01  4.490050646009E+01
  4.404647604261E+01  4.318752665143E+01  4.232402701976E+01  4.145636269624E+01
  4.058493606072E+01  3.971016629497E+01  3.883248930541E+01  3.795235759469E+01
  3.707024007910E+01  3.618662184854E+01  3.530200386614E+01  3.441690260432E+01
  3.353184961448E+01  3.264739102721E+01  3.176408698043E+01  3.088251097270E+01
  3.000324913929E+01  2.912689944871E+01  2.825407081775E+01  2.738538214321E+01
  2.652146124894E+01  2.566294374716E+01  2.481047181333E+01  2.396469287441E+01
  2.312625821069E+01  2.229582147208E+01  2.147403711020E+01  2.066155872816E+01
  1.985903735089E+01  1.906711961914E+01  1.828644591139E+01  1.751764839858E+01
  1.676134903731E+01  1.601815750800E+01  1.528866910567E+01  1.457346259143E+01
  1.387309801409E+01  1.318811451199E+01  1.251902810618E+01  1.186632949685E+01
  1.123048187604E+01  1.061191877016E+01  1.001104192695E+01  9.428219262148E+00
  8.863782881710E+00  8.318027196106E+00  7.791207143667E+00  7.283536540246E+00
  6.795186572694E+00  6.326284453691E+00  5.876912255333E+00  5.447105938552E+00
  5.036854594926E+00  4.646099916669E+00  4.274735909633E+00  3.922608862896E+00
  3.589517587062E+00  3.275213931626E+00  2.979403589797E+00  2.701747196879E+00
  2.441861725846E+00  2.199322180914E+00  1.973663587100E+00  1.764383270375E+00
  1.570943419854E+00  1.392773919870E+00  1.229275436239E+00  1.079822737363E+00
  9.437682272039E-01  8.204456635583E-01  7.091740316241E-01  6.092615395938E-01
  5.200096999966E-01  4.407174578672E-01  3.706853245686E-01  3.092194743441E-01
  2.556357594806E-01  2.092635994006E-01  1.694496991252E-01  1.355615534205E-01
  1.069906945860E-01  8.315564430279E-02  6.350453323610E-02  4.751735617117E-02
  3.470783533018E-02  2.462487011675E-02  1.685355779092E-02  1.101577639587E-02
  6.770328517152E-03  3.812652015248E-03  1.874111569934E-03  7.208925322801E-04
  1.525260037330E-04  8.105099859177E-08  1.240663159145E-04  4.120887907530E-04
  7.763220114510E-04  1.150839202685E-03  1.488868844195E-03  1.760030605973E-03
  1.947608550790E-03  2.045915903391E-03  2.057801566832E-03  1.992343013929E-03
  1.862763339391E-03  1.684602325628E-03  1.474162604698E-03  1.247242688283E-03
  1.018159120620E-03  7.990506435474E-04  5.994484143879E-04  4.260883444567E-04
  2.829348610064E-04  1.713801263879E-04  9.057920163657E-05  3.787996659636E-05
  9.306864211086E-06  5.968355622579E-08  4.992494002609E-06  1.904325257050E-05
  3.759120003183E-05  5.672653764787E-05  7.342458374216E-05  8.562417220699E-05
  9.221700551697E-05  9.296058483845E-05  8.833185315408E-05  7.934154800504E-05
  6.733033519276E-05  5.376708681615E-05  4.006731948918E-05  2.744609611940E-05
  1.681500290677E-05  8.727607346810E-06  3.372586824546E-06  6.089869306822E-07
  3.426416262302E-08  1.073228910193E-06  3.074934466164E-06  5.404999089846E-06
  7.522677143710E-06  9.034933854205E-06  9.723424527683E-06  9.544154639180E-06
  8.603205382781E-06  7.114798000101E-06  5.349791646146E-06  3.583267656762E-06
  2.049131791009E-06  9.078327107761E-07  2.306769831196E-07  1.257086726425E-09
  0.000000000000E+00  0.000000000000E+00  0.000000000000E+00  0.000000000000E+00
  0.000000000000E+00  0.000000000000E+00  0.000000000000E+00  0.000000000000E+00
  0.000000000000E+00  0.000000000000E+00  0.000000000000E+00  0.000000000000E+00
  0.000000000000E+00  0.000000000000E+00  0.000000000000E+00  0.000000000000E+00
  0.000000000000E+00  0.000000000000E+00  0.000000000000E+00  0.000000000000E+00
  0.000000000000E+00  0.000000000000E+00  0.000000000000E+00  0.000000000000E+00
  0.000000000000E+00  0.000000000000E+00  0.000000000000E+00  0.000000000000E+00
  0.000000000000E+00  0.000000000000E+00  0.000000000000E+00  0.000000000000E+00
  0.000000000000E+00  0.000000000000E+00  0.000000000000E+00  0.000000000000E+00
  0.000000000000E+00  0.000000000000E+00  0.000000000000E+00  0.000000000000E+00
  0.000000000000E+00  0.000000000000E+00  0.000000000000E+00  0.000000000000E+00
  0.000000000000E+00  0.000000000000E+00
</data>
</radfunc>
</pseudocore-charge>
<semilocal-potentials set="scalar_relativistic">
<slps n="5" l="s" rc="2.26546901733" eref="-0.555231148600">
<radfunc>
<data npts="290">
  5.970561477780E+01  5.966001406510E+01  5.952401460157E+01  5.929817320977E+01
  5.898634405907E+01  5.858011281523E+01  5.806851887835E+01  5.749098957755E+01
  5.685195172583E+01  5.612019264942E+01  5.531224805886E+01  5.445369970888E+01
  5.344240198033E+01  5.241573004230E+01  5.124168642791E+01  5.010736961819E+01
  4.884607879501E+01  4.769261494958E+01  4.644220149060E+01  4.509210391062E+01
  4.364065614789E+01  4.240621716595E+01  4.110711132967E+01  3.974447647304E+01
  3.832016338043E+01  3.683677199849E+01  3.529767192251E+01  3.410925066500E+01
  3.289383399545E+01  3.165367855188E+01  3.039125794293E+01  2.910924587508E+01
  2.781049548624E+01  2.649801516460E+01  2.517494124920E+01  2.384450811743E+01
  2.251001625986E+01  2.117479901868E+01  2.028589785669E+01  1.939913619701E+01
  1.851548294667E+01  1.763589153840E+01  1.676129585841E+01  1.589260637739E+01
  1.503070652078E+01  1.417644931043E+01  1.333065430642E+01  1.249410487283E+01
  1.166754578725E+01  1.085168120875E+01  1.004717301459E+01  9.254639511087E+00
  8.474654519522E+00  7.707746833773E+00  6.954400042204E+00  6.215052702712E+00
  5.490098856491E+00  4.779888863234E+00  4.084730538017E+00  3.404890568104E+00
  2.740596186355E+00  2.092037076696E+00  1.459367486333E+00  8.427085188252E-01
  2.421505819107E-01 -3.422440361650E-01 -9.104384880712E-01 -1.188455416676E+00
 -1.462418612841E+00 -1.732329391063E+00 -1.998190131757E+00 -2.260004192807E+00
 -2.517775821397E+00 -2.771510066354E+00 -3.021212691232E+00 -3.266890088369E+00
 -3.508549194186E+00 -3.746197405943E+00 -3.979842500264E+00 -4.209492553692E+00
 -4.435155865567E+00 -4.656840883562E+00 -4.874556132194E+00 -5.088310144678E+00
 -5.298111398502E+00 -5.503968255115E+00 -5.705888904181E+00 -5.903881312830E+00
 -6.097953180408E+00 -6.288111899215E+00 -6.474364521779E+00 -6.656717735195E+00
 -6.835177843099E+00 -7.009750755869E+00 -7.180441989497E+00 -7.347256673951E+00
 -7.510199571135E+00 -7.669275103325E+00 -7.824487392199E+00 -7.975840308901E+00
 -8.123337535312E+00 -8.266982636583E+00 -8.406779144856E+00 -8.542730653897E+00
 -8.674840924181E+00 -8.803113997741E+00 -8.927554321902E+00 -9.048166880780E+00
 -9.164957333218E+00 -9.277932155649E+00 -9.387098788218E+00 -9.492465782336E+00
 -9.594042947809E+00 -9.691841497625E+00 -9.785874188552E+00 -9.876155455745E+00
 -9.962701539790E+00 -1.004553060474E+01 -1.012466284599E+01 -1.020012058710E+01
 -1.027192836488E+01 -1.034011300246E+01 -1.040470367004E+01 -1.046573193342E+01
 -1.052323179030E+01 -1.057723969441E+01 -1.062779456735E+01 -1.067493779785E+01
 -1.071871322773E+01 -1.075916712345E+01 -1.079634813158E+01 -1.083030721593E+01
 -1.086109757347E+01 -1.088877452542E+01 -1.091339537947E+01 -1.093501925835E+01
 -1.095370688986E+01 -1.096952035300E+01 -1.098252277533E+01 -1.099277797696E+01
 -1.100035005808E+01 -1.100530292831E+01 -1.100769977951E+01 -1.100760250685E+01
 -1.100507108870E+01 -1.100016294178E+01 -1.099293227598E+01 -1.098342948226E+01
 -1.097170059624E+01 -1.095778688955E+01 -1.094172464858E+01 -1.092354520488E+01
 -1.090327527997E+01 -1.088093769999E+01 -1.085655251547E+01 -1.083013853486E+01