<?xml version="1.0" encoding="UTF-8" ?>
<psml version="1.1" energy_unit="hartree" length_unit="bohr"
 uuid="41f9c490-be6d-11e7-7c63-cc31c1dbcff2"
 xmlns="http://esl.cecam.org/PSML/ns/1.1">
<provenance creator="ONCVPSP-3.3.0+psml-3.3.0-73 (scalar-relativistic)"
 date="2017-10-31">
<annotation action="semilocal-pseudopotential-generation"
 action-cont="projectors-generation" />
<input-file name="oncvpsp-input">
<![CDATA[# atsym z nc nv iexc psfile
Pt 78 10 4 4 upf
# n l f
1 0 2.0
2 0 2.0
2 1 6.0
3 0 2.0
3 1 6.0
3 2 10.0
4 0 2.0
4 1 6.0
4 2 10.0
4 3 14.0
5 0 2.0
5 1 6.0
5 2 9.0
6 0 1.0
# lmax
3
# l rc ep ncon nbas qcut
0 1.45 0.0 4 7 8.8
1 1.45 0.0 4 7 9.0
2 1.45 0.0 4 7 8.8
3 1.9 0.1 4 8 6.8
# lloc lpopt rc5 dvloc0
4 3 1.3 0.0
# l nproj debl
0 2 1.0
1 2 2.5
2 2 1.0
3 2 3.0
# icmod fcfact rcfact
3 5.0 1.37
# epsh1 epsh2 depsh
-14.0 12.0 0.02
# rlmax drl
5.0 0.01
 0
]]>
</input-file>
</provenance>
<pseudo-atom-spec atomic-label="Pt" atomic-number="78" z-pseudo="18"
 flavor="Hamann&apos;s oncvpsp" relativity="scalar" spin-dft="no"
 core-corrections="yes">
<annotation pseudo-energy="-120.946905576" />
<exchange-correlation>
<annotation oncvpsp-xc-code="4" oncvpsp-xc-type="GGA -- Perdew-Burke-Ernzerhof" />
<libxc-info number-of-functionals="2">
<functional name="Perdew, Burke &amp; Ernzerhof (GGA)" type="exchange" id="101" />
<functional name="Perdew, Burke &amp; Ernzerhof (GGA)" type="correlation"
 id="130" />
</libxc-info>
</exchange-correlation>
<valence-configuration total-valence-charge="18">
<shell n="5" l="s" occupation="2" />
<shell n="5" l="p" occupation="6" />
<shell n="5" l="d" occupation="9" />
<shell n="6" l="s" occupation="1" />
</valence-configuration>
</pseudo-atom-spec>
<grid npts="457">
<annotation type="sampled from oncvpsp log grid"
 recipe="r(i:1..N) = r1*exp(a*(i-1)) + r=0; resampled"
 recipe-cont="r1: scale; a: step" scale="0.641025641026E-05"
 step="0.119285708653E-01" delta="0.500000000000E-02" rmax="44.1724925976" />
<grid-data>
  0.000000000000E+00  5.044079132587E-03  1.007515222223E-02  1.511433492157E-02
  2.012432589434E-02  2.524358775694E-02  3.055197424992E-02  3.567680395129E-02
  4.067912281364E-02  4.583283320620E-02  5.102715052485E-02  5.613651102371E-02
  6.175747298255E-02  6.713563554845E-02  7.298215653624E-02  7.839705833785E-02
  8.421371808842E-02  8.938927289305E-02  9.488290375636E-02  1.007141588008E-01
  1.069037875253E-01  1.121282753347E-01  1.176080887363E-01  1.233557057302E-01
  1.293842141275E-01  1.357073413533E-01  1.423394857043E-01  1.475254438101E-01
  1.529003457030E-01  1.584710753094E-01  1.642447673631E-01  1.702288165427E-01
  1.764308869423E-01  1.828589218880E-01  1.895211541104E-01  1.964261162895E-01
  2.035826519825E-01  2.109999269504E-01  2.160943091867E-01  2.213116901877E-01
  2.266550396356E-01  2.321273989125E-01  2.377318828319E-01  2.434716814109E-01
  2.493500616869E-01  2.553703695763E-01  2.615360317794E-01  2.678505577306E-01
  2.743175415965E-01  2.809406643208E-01  2.877236957202E-01  2.946704966296E-01
  3.017850211002E-01  3.090713186497E-01  3.165335365672E-01  3.241759222740E-01
  3.320028257414E-01  3.400187019661E-01  3.482281135064E-01  3.566357330789E-01
  3.652463462184E-01  3.740648540015E-01  3.830962758365E-01  3.923457523203E-01
  4.018185481643E-01  4.115200551912E-01  4.214557954037E-01  4.265132649485E-01
  4.316314241279E-01  4.368110012175E-01  4.420527332321E-01  4.473573660308E-01
  4.527256544232E-01  4.581583622763E-01  4.636562626236E-01  4.692201377751E-01
  4.748507794284E-01  4.805489887815E-01  4.863155766469E-01  4.921513635667E-01
  4.980571799295E-01  5.040338660886E-01  5.100822724817E-01  5.162032597515E-01
  5.223976988685E-01  5.286664712549E-01  5.350104689100E-01  5.414305945369E-01
  5.479277616713E-01  5.545028948114E-01  5.611569295491E-01  5.678908127037E-01
  5.747055024562E-01  5.816019684856E-01  5.885811921075E-01  5.956441664128E-01
  6.027918964097E-01  6.100253991666E-01  6.173457039566E-01  6.247538524041E-01
  6.322508986330E-01  6.398379094166E-01  6.475159643295E-01  6.552861559015E-01
  6.631495897723E-01  6.711073848496E-01  6.791606734678E-01  6.873106015494E-01
  6.955583287680E-01  7.039050287132E-01  7.123518890578E-01  7.209001117265E-01
  7.295509130672E-01  7.383055240240E-01  7.471651903123E-01  7.561311725960E-01
  7.652047466672E-01  7.743872036272E-01  7.836798500707E-01  7.930840082715E-01
  8.026010163708E-01  8.122322285673E-01  8.219790153101E-01  8.318427634938E-01
  8.418248766557E-01  8.519267751756E-01  8.621498964777E-01  8.724956952354E-01
  8.829656435782E-01  8.935612313012E-01  9.042839660768E-01  9.151353736697E-01
  9.261169981538E-01  9.372304021316E-01  9.484771669572E-01  9.598588929607E-01
  9.713771996762E-01  9.830337260723E-01  9.948301307852E-01  1.006768092355E+00
  1.018849309463E+00  1.031075501176E+00  1.043448407191E+00  1.055969788077E+00
  1.068641425534E+00  1.081465122640E+00  1.094442704112E+00  1.107576016561E+00
  1.120866928760E+00  1.134317331905E+00  1.147929139888E+00  1.161704289567E+00
  1.175644741041E+00  1.189752477934E+00  1.204029507669E+00  1.218477861761E+00
  1.233099596102E+00  1.247896791255E+00  1.262871552750E+00  1.278026011383E+00
  1.293362323520E+00  1.308882671402E+00  1.324589263459E+00  1.340484334621E+00
  1.356570146636E+00  1.372848988396E+00  1.389323176256E+00  1.405995054372E+00
  1.422866995024E+00  1.439941398964E+00  1.457220695752E+00  1.474707344101E+00
  1.492403832230E+00  1.510312678217E+00  1.528436430355E+00  1.546777667520E+00
  1.565338999530E+00  1.584123067524E+00  1.603132544335E+00  1.622370134867E+00
  1.641838576485E+00  1.661540639403E+00  1.681479127076E+00  1.701656876601E+00
  1.722076759120E+00  1.742741680229E+00  1.763654580392E+00  1.784818435357E+00
  1.806236256581E+00  1.827911091660E+00  1.849846024760E+00  1.872044177057E+00
  1.894508707182E+00  1.917242811668E+00  1.940249725408E+00  1.963532722113E+00
  1.987095114778E+00  2.010940256155E+00  2.035071539229E+00  2.059492397700E+00
  2.084206306473E+00  2.109216782150E+00  2.134527383536E+00  2.160141712138E+00
  2.186063412684E+00  2.212296173636E+00  2.238843727720E+00  2.265709852453E+00
  2.292898370682E+00  2.320413151130E+00  2.348258108944E+00  2.376437206251E+00
  2.404954452726E+00  2.433813906159E+00  2.463019673033E+00  2.492575909109E+00
  2.522486820018E+00  2.552756661859E+00  2.583389741801E+00  2.614390418703E+00
  2.645763103727E+00  2.677512260972E+00  2.709642408103E+00  2.742158117001E+00
  2.775064014405E+00  2.808364782577E+00  2.842065159968E+00  2.876169941888E+00
  2.910683981191E+00  2.945612188965E+00  2.980959535233E+00  3.016731049655E+00
  3.052931822251E+00  3.089567004118E+00  3.126641808168E+00  3.164161509866E+00
  3.202131447984E+00  3.240557025360E+00  3.279443709664E+00  3.318797034180E+00
  3.358622598590E+00  3.398926069773E+00  3.439713182611E+00  3.480989740802E+00
  3.522761617692E+00  3.565034757104E+00  3.607815174189E+00  3.651108956279E+00
  3.694922263755E+00  3.739261330920E+00  3.784132466891E+00  3.829542056494E+00
  3.875496561171E+00  3.922002519905E+00  3.969066550144E+00  4.016695348746E+00
  4.064895692931E+00  4.113674441246E+00  4.163038534541E+00  4.212994996956E+00
  4.263550936919E+00  4.314713548162E+00  4.366490110740E+00  4.418887992069E+00
  4.471914647974E+00  4.525577623750E+00  4.579884555234E+00  4.634843169897E+00
  4.690461287936E+00  4.746746823391E+00  4.803707785272E+00  4.861352278695E+00
  4.919688506040E+00  4.978724768112E+00  5.038469465329E+00  5.098931098913E+00
  5.160118272100E+00  5.222039691366E+00  5.284704167662E+00  5.348120617674E+00
  5.412298065086E+00  5.477245641867E+00  5.542972589569E+00  5.609488260644E+00
  5.676802119772E+00  5.744923745209E+00  5.813862830152E+00  5.883629184114E+00
  5.954232734323E+00  6.025683527135E+00  6.097991729460E+00  6.171167630214E+00
  6.245221641777E+00  6.320164301478E+00  6.396006273096E+00  6.472758348373E+00
  6.550431448553E+00  6.629036625936E+00  6.708585065447E+00  6.789088086232E+00
  6.870557143267E+00  6.953003828986E+00  7.036439874934E+00  7.120877153433E+00
  7.206327679275E+00  7.292803611426E+00  7.380317254763E+00  7.468881061820E+00
  7.558507634562E+00  7.649209726177E+00  7.741000242891E+00  7.833892245806E+00
  7.927898952755E+00  8.023033740188E+00  8.119310145071E+00  8.216741866811E+00
  8.315342769213E+00  8.415126882444E+00  8.516108405033E+00  8.618301705893E+00
  8.721721326364E+00  8.826381982281E+00  8.932298566068E+00  9.039486148861E+00
  9.147959982647E+00  9.257735502439E+00  9.368828328468E+00  9.481254268410E+00
  9.595029319631E+00  9.710169671466E+00  9.826691707524E+00  9.944612008014E+00
  1.006394735211E+01  1.018471472034E+01  1.030693129698E+01  1.043061447254E+01
  1.055578184621E+01  1.068245122837E+01  1.081064064311E+01  1.094036833083E+01
  1.107165275080E+01  1.120451258381E+01  1.133896673481E+01  1.147503433563E+01
  1.161273474766E+01  1.175208756463E+01  1.189311261540E+01  1.203582996679E+01
  1.218025992639E+01  1.232642304551E+01  1.247434012205E+01  1.262403220352E+01
  1.277552058996E+01  1.292882683704E+01  1.308397275908E+01  1.324098043219E+01
  1.339987219738E+01  1.356067066375E+01  1.372339871171E+01  1.388807949625E+01
  1.405473645021E+01  1.422339328761E+01  1.439407400706E+01  1.456680289515E+01
  1.474160452989E+01  1.491850378425E+01  1.509752582966E+01  1.527869613961E+01
  1.546204049329E+01  1.564758497921E+01  1.583535599896E+01  1.602538027095E+01
  1.621768483420E+01  1.641229705221E+01  1.660924461684E+01  1.680855555224E+01
  1.701025821886E+01  1.721438131749E+01  1.742095389330E+01  1.763000534002E+01
  1.784156540410E+01  1.805566418895E+01  1.827233215922E+01  1.849160014513E+01
  1.871349934687E+01  1.893806133903E+01  1.916531807510E+01  1.939530189200E+01
  1.962804551471E+01  1.986358206088E+01  2.010194504561E+01  2.034316838616E+01
  2.058728640679E+01  2.083433384368E+01  2.108434584980E+01  2.133735800000E+01
  2.159340629600E+01  2.185252717155E+01  2.211475749761E+01  2.238013458758E+01
  2.264869620263E+01  2.292048055706E+01  2.319552632375E+01  2.347387263963E+01
  2.375555911131E+01  2.404062582064E+01  2.432911333049E+01  2.462106269046E+01
  2.491651544274E+01  2.521551362805E+01  2.551809979159E+01  2.582431698909E+01
  2.613420879296E+01  2.644781929847E+01  2.676519313006E+01  2.708637544762E+01
  2.741141195299E+01  2.774034889642E+01  2.807323308318E+01  2.841011188018E+01
  2.875103322274E+01  2.909604562141E+01  2.944519816887E+01  2.979854054690E+01
  3.015612303346E+01  3.051799650986E+01  3.088421246798E+01  3.125482301760E+01
  3.162988089381E+01  3.200943946453E+01  3.239355273811E+01  3.278227537096E+01
  3.317566267542E+01  3.357377062752E+01  3.397665587505E+01  3.438437574555E+01
  3.479698825450E+01  3.521455211355E+01  3.563712673892E+01  3.606477225978E+01
  3.649754952690E+01  3.693552012122E+01  3.737874636268E+01  3.782729131903E+01
  3.828121881486E+01  3.874059344064E+01  3.920548056192E+01  3.967594632867E+01
  4.015205768461E+01  4.063388237683E+01  4.112148896535E+01  4.161494683293E+01
  4.211432619493E+01  4.261969810927E+01  4.313113448658E+01  4.364870810042E+01
  4.417249259762E+01
</grid-data>
</grid>
<valence-charge total-charge="18" is-unscreening-charge="yes"
 rescaled-to-z-pseudo="no">
<radfunc>
<data npts="457">
  9.375130408051E-01  9.384804960877E-01  9.413735565297E-01  9.462035599318E-01
  9.529259541281E-01  9.617776420279E-01  9.730795024155E-01  9.860493069931E-01
  1.000668389161E+00  1.017764536295E+00  1.037096687912E+00  1.058183670777E+00
  1.083771563378E+00  1.110615682196E+00  1.142439752927E+00  1.174391536092E+00
  1.211393376157E+00  1.246672630664E+00  1.286571274159E+00  1.331712064044E+00
  1.382805569089E+00  1.428507834456E+00  1.479004967272E+00  1.534817955637E+00
  1.596526912060E+00  1.664777939215E+00  1.740290722060E+00  1.802169726852E+00
  1.868953863079E+00  1.941045598576E+00  2.018880974638E+00  2.102932178544E+00
  2.193710215350E+00  2.291767651449E+00  2.397701391225E+00  2.512155434351E+00
  2.635823544159E+00  2.769451736698E+00  2.864463570758E+00  2.964507707137E+00
  3.069846421562E+00  3.180753370949E+00  3.297513613136E+00  3.420423528953E+00
  3.549790628006E+00  3.685933217114E+00  3.829179907795E+00  3.979868936408E+00
  4.138347267612E+00  4.304969448744E+00  4.480096179474E+00  4.664092557880E+00
  4.857325960758E+00  5.060163512847E+00  5.272969096604E+00  5.496099851489E+00
  5.729902109502E+00  5.974706712168E+00  6.230823653511E+00  6.498535994092E+00
  6.778092993193E+00  7.069702410075E+00  7.373521931377E+00  7.689649690519E+00
  8.018113856998E+00  8.358861289227E+00  8.711745264565E+00  8.892663796457E+00
  9.076512325064E+00  9.263240198478E+00  9.452788307646E+00  9.645088612986E+00
  9.840063663482E+00  1.003762610985E+01  1.023767821366E+01  1.044011135440E+01
  1.064480553692E+01  1.085162890167E+01  1.106043724067E+01  1.127107352223E+01
  1.148336742787E+01  1.169713490509E+01  1.191217773990E+01  1.212828315344E+01
  1.234522342728E+01  1.256275556216E+01  1.278062097540E+01  1.299854524241E+01
  1.321623788799E+01  1.343339223339E+01  1.364968530530E+01  1.386477781316E+01
  1.407831420145E+01  1.428992278343E+01  1.449921596330E+01  1.470579055351E+01
  1.490922819392E+01  1.510909587954E+01  1.530494660332E+01  1.549632012012E+01
  1.568274383788E+01  1.586373384123E+01  1.603879605254E+01  1.620742753438E+01
  1.636911793708E+01  1.652335109352E+01  1.666960676286E+01  1.680736252325E+01
  1.693609581266E+01  1.705528611513E+01  1.716441728869E+01  1.726298002883E+01
  1.735047446039E+01  1.742641284819E+01  1.749032241502E+01  1.754174825360E+01
  1.758025631676E+01  1.760543646829E+01  1.761690557436E+01  1.761431061361E+01
  1.759733178183E+01  1.756568556520E+01  1.751912775417E+01  1.745745636858E+01
  1.738051446306E+01  1.728819278064E+01  1.718043222167E+01  1.705722609464E+01
  1.691862211542E+01  1.676472412180E+01  1.659569347083E+01  1.641175008818E+01
  1.621317314011E+01  1.600030130126E+01  1.577353259438E+01  1.553332378155E+01
  1.528018929028E+01  1.501469966261E+01  1.473747952015E+01  1.444920504332E+01
  1.415060096885E+01  1.384243711565E+01  1.352552445525E+01  1.320071074943E+01
  1.286887578384E+01  1.253092623285E+01  1.218779019658E+01  1.184041145700E+01
  1.148974350495E+01  1.113674339487E+01  1.078236548772E+01  1.042755514607E+01
  1.007324244765E+01  9.720335984996E+00  9.369716819592E+00  9.022232658215E+00
  8.678692317680E+00  8.339860541669E+00  8.006453229716E+00  7.679133133856E+00
  7.358506072988E+00  7.045117708748E+00  6.739450919680E+00  6.441923803586E+00
  6.152888331956E+00  5.872629673437E+00  5.601366192799E+00  5.339250122419E+00
  5.086368895993E+00  4.842747126740E+00  4.608349205804E+00  4.383084498012E+00
  4.166821082645E+00  3.959404355838E+00  3.760660585713E+00  3.570398839856E+00
  3.388413758068E+00  3.214487841853E+00  3.048393639198E+00  2.889895777751E+00
  2.738752848751E+00  2.594719143126E+00  2.457546242004E+00  2.326984464860E+00
  2.202784179399E+00  2.084696977994E+00  1.972476726112E+00  1.865880488643E+00
  1.764669340445E+00  1.668609067671E+00  1.577470766655E+00  1.491031347238E+00
  1.409073947510E+00  1.331388266354E+00  1.257770821563E+00  1.188025139098E+00
  1.121961880438E+00  1.059398914105E+00  1.000161337291E+00  9.440814532132E-01
  8.909987095580E-01  8.407596030192E-01  7.932175546356E-01  7.482327602974E-01
  7.056720204649E-01  6.654085528169E-01  6.273217912294E-01  5.912971741740E-01
  5.572259253265E-01  5.250048288893E-01  4.945360018573E-01  4.657266651982E-01
  4.384889156729E-01  4.127394997973E-01  3.883995912290E-01  3.653945726723E-01
  3.436538232104E-01  3.231105118102E-01  3.037013975964E-01  2.853666373553E-01
  2.680496006085E-01  2.516966924889E-01  2.362571845566E-01  2.216830536079E-01
  2.079288284604E-01  1.949514446346E-01  1.827101067978E-01  1.711661587973E-01
  1.602829610678E-01  1.500257751746E-01  1.403616552285E-01  1.312593458924E-01
  1.226891866878E-01  1.146230223026E-01  1.070341185967E-01  9.989708400112E-02
  9.318779601122E-02  8.688333247466E-02  8.096190738451E-02  7.540281089338E-02
  7.018635327399E-02  6.529381256082E-02  6.070738561759E-02  5.641014238624E-02
  5.238598308363E-02  4.861959812364E-02  4.509643055488E-02  4.180264080812E-02
  3.872507357625E-02  3.585122663996E-02  3.316922147799E-02  3.066777550715E-02
  2.833617580927E-02  2.616425421338E-02  2.414236361244E-02  2.226135540470E-02
  2.051255796021E-02  1.888775602318E-02  1.737917097055E-02  1.597944185648E-02
  1.468160718112E-02  1.347908733018E-02  1.236566763945E-02  1.133548204521E-02
  1.038299728773E-02  9.502997640720E-03  8.690570144181E-03  7.941090322773E-03
  7.250208374955E-03  6.613835821421E-03  6.028132603663E-03  5.489494625368E-03
  4.994541730795E-03  4.540106115222E-03  4.123221163141E-03  3.741110710156E-03
  3.391178724462E-03  3.070999403570E-03  2.778307681410E-03  2.510990140412E-03
  2.267076322358E-03  2.044730431099E-03  1.842243419315E-03  1.658025450744E-03
  1.490598728467E-03  1.338590679092E-03  1.200727482012E-03  1.075827932345E-03
  9.627976256468E-04  8.606234521865E-04  7.683683882420E-04  6.851665719132E-04
  6.102186506449E-04  5.427873881772E-04  4.821935184595E-04  4.278118345234E-04
  3.790675007056E-04  3.354325769642E-04  2.964227445231E-04  2.615942225809E-04
  2.305408663265E-04  2.028914370242E-04  1.783070354349E-04  1.564786903302E-04
  1.371250943253E-04  1.199904796896E-04  1.048426272006E-04  9.147100147668E-05
  7.968500655675E-05  6.931235580083E-05  6.019755045238E-05  5.220046144685E-05
  4.519500926637E-05  3.906793683463E-05  3.371767062163E-05  2.905326528889E-05
  2.499342735451E-05  2.146561349847E-05  1.840519926306E-05  1.575471403470E-05
  1.346313832319E-05  1.148525948371E-05  9.781082157911E-06  8.315289842491E-06
  7.056754128477E-06  5.978088291434E-06  5.055242052118E-06  4.267134468469E-06
  3.595322062728E-06  3.023699431354E-06  2.538229729725E-06  2.126702567480E-06
  1.778516993291E-06  1.484487388952E-06  1.236670231367E-06  1.028209816642E-06
  8.532011724356E-07  7.065685124867E-07  5.839577103884E-07  4.816413877767E-07
  3.964353249192E-07  3.256250089247E-07  2.669012363261E-07  2.183037825077E-07
  1.781722403168E-07  1.451032142482E-07  1.179131348847E-07  9.560603093564E-08
  7.734566339761E-08  6.243148824618E-08  5.027797087385E-08  4.039682744895E-08
  3.238181573078E-08  2.589574089871E-08  2.065938090263E-08  1.644207098665E-08
  1.305371864565E-08  1.033804860719E-08  8.166902747766E-09  6.435442399889E-09
  5.058120525072E-09  3.965308943476E-09  3.100481440399E-09  2.417867314482E-09
  1.880501982318E-09  1.458611784812E-09  1.128279315054E-09  8.703435552662E-10
  6.694960086736E-10  5.135399658518E-10  3.927851673690E-10  2.995545177620E-10
  2.277832618685E-10  1.726942356185E-10  1.305355228709E-10  9.836915286457E-11
  7.390141687792E-11  5.534701841895E-11  4.132064313446E-11  3.075068143905E-11
  2.281079244876E-11  1.686579086516E-11  1.242899915889E-11  9.128729129915E-12
  5.932893903956E-12  4.336497075720E-12  3.158634457717E-12  2.292606924030E-12
  1.658103380788E-12  1.194887466487E-12  8.579405390794E-13  6.137384133189E-13
  4.374075424468E-13  3.105608764990E-13  2.196570577551E-13  1.547610629768E-13
  1.086116229749E-13  7.592217542512E-14  5.285890416902E-14  3.665253476985E-14
  2.531075723232E-14  1.740604830993E-14  1.191976099751E-14  8.128031080815E-15
  5.518632434280E-15  3.730641150074E-15  2.510837993152E-15  1.682341475375E-15
  1.122138888815E-15  7.450622325557E-16  4.924114528912E-16  3.239136854489E-16
  2.120662744543E-16  1.381752876350E-16  8.959434735767E-17  5.780920540371E-17
  3.711538107088E-17  2.370966755339E-17  1.506902937947E-17  9.528112673593E-18
  5.993266237349E-18  3.749973468914E-18  2.333851582014E-18  1.444677248477E-18
  8.893911467014E-19  5.445159555117E-19  3.315090456132E-19  2.006863796176E-19
  1.207948947045E-19  7.228654909871E-20  4.300454315730E-20  2.543246462944E-20
  1.495026109366E-20  8.735019654442E-21  5.072264995538E-21  2.927053424643E-21
  1.678484112922E-21  9.563764585121E-22  0.000000000000E+00  0.000000000000E+00
  0.000000000000E+00  0.000000000000E+00  0.000000000000E+00  0.000000000000E+00
  0.000000000000E+00  0.000000000000E+00  0.000000000000E+00  0.000000000000E+00
  0.000000000000E+00  0.000000000000E+00  0.000000000000E+00  0.000000000000E+00
  0.000000000000E+00  0.000000000000E+00  0.000000000000E+00  0.000000000000E+00
  0.000000000000E+00
</data>
</radfunc>
</valence-charge>
<pseudocore-charge matching-radius="0.812232228567"
 number-of-continuous-derivatives="4">
<annotation model-charge-form="Teter function with specified parameters" />
<radfunc>
<data npts="275">
  9.205915810173E+01  9.205318182644E+01  9.203531676631E+01  9.200551182696E+01
  9.196407297808E+01  9.190958566691E+01  9.184014286951E+01  9.176062561685E+01
  9.167121791116E+01  9.156695560055E+01  9.144943566770E+01  9.132170140570E+01
  9.116732981198E+01  9.100610762367E+01  9.081592678880E+01  9.062600195564E+01
  9.040731090333E+01  9.020002766620E+01  8.996701651176E+01  8.970516003304E+01
  8.941098350282E+01  8.914978705022E+01  8.886326230060E+01  8.854904385827E+01
  8.820456445507E+01  8.782704178893E+01  8.741346542963E+01  8.707767645556E+01
  8.671831909162E+01  8.633384609891E+01  8.592262511210E+01  8.548293658011E+01
  8.501297213773E+01  8.451083351347E+01  8.397453209487E+01  8.340198928923E+01
  8.279103783659E+01  8.213942425202E+01  8.168127481595E+01  8.120330527103E+01
  8.070478979274E+01  8.018498924225E+01  7.964315241986E+01  7.907851752534E+01
  7.849031384371E+01  7.787776367585E+01  7.724008453420E+01  7.657649162463E+01
  7.588620063609E+01  7.516843086057E+01  7.442240866574E+01  7.364737134342E+01
  7.284257135641E+01  7.200728100620E+01  7.114079754311E+01  7.024244873934E+01
  6.931159894367E+01  6.834765563421E+01  6.735007648292E+01  6.631837694157E+01
  6.525213835462E+01  6.415101659866E+01  6.301475124190E+01  6.184317520904E+01
  6.063622492817E+01  5.939395092585E+01  5.811652882464E+01  5.746472910998E+01
  5.680427068405E+01  5.613521577765E+01  5.545763661074E+01  5.477161576344E+01
  5.407724654714E+01  5.337463337482E+01  5.266389212931E+01  5.194515052830E+01
  5.121854848490E+01  5.048423846220E+01  4.974238582039E+01  4.899316915489E+01
  4.823678062376E+01  4.747342626261E+01  4.670332628503E+01  4.592671536677E+01
  4.514384291131E+01  4.435497329486E+01  4.356038608835E+01  4.276037625410E+01
  4.195525431467E+01  4.114534649141E+01  4.033099480993E+01  3.951255716990E+01
  3.869040737637E+01  3.786493512972E+01  3.703654597147E+01  3.620566118291E+01
  3.537271763370E+01  3.453816757748E+01  3.370247839151E+01  3.286613225753E+01
  3.202962578089E+01  3.119346954528E+01  3.035818760027E+01  2.952431687924E+01
  2.869240654511E+01  2.786301726188E+01  2.703672038979E+01  2.621409710247E+01
  2.539573742449E+01  2.458223918831E+01  2.377420690972E+01  2.297225058143E+01
  2.217698438491E+01  2.138902532091E+01  2.060899175989E+01  1.983750191382E+01
  1.907517223171E+01  1.832261572178E+01  1.758044020369E+01  1.684924649544E+01
  1.612962653968E+01  1.542216147556E+01  1.472741966269E+01  1.404595466474E+01
  1.337830320117E+01  1.272498307614E+01  1.208649109499E+01  1.146330097906E+01
  1.085586129081E+01  1.026459338178E+01  9.689889376872E+00  9.132110209128E+00
  8.591583719699E+00  8.068602838470E+00  7.563423861149E+00  7.076264839070E+00
  6.607304098179E+00  6.156678903760E+00  5.724484287449E+00  5.310772052804E+00
  4.915549975297E+00  4.538781211996E+00  4.180383935324E+00  3.840231204249E+00
  3.518151084943E+00  3.213927031417E+00  2.927298534829E+00  2.657962048158E+00
  2.405572190635E+00  2.169743233839E+00  1.950050868621E+00  1.746034249105E+00
  1.557198306921E+00  1.383016325559E+00  1.222932761393E+00  1.076366294501E+00
  9.427130889401E-01  8.213502387704E-01  7.116393727407E-01  6.129303874469E-01
  5.245652757863E-01  4.458820149064E-01  3.762184755455E-01  3.149163128140E-01
  2.613247971121E-01  2.148045430983E-01  1.747310944680E-01  1.404983228340E-01
  1.115216002536E-01  8.724070695618E-02  6.712243860928E-02  5.066288100947E-02
  3.738932439332E-02  2.686179457783E-02  1.867418381106E-02  1.245497045360E-02
  7.867523317509E-03  4.609993536163E-03  2.414804079651E-03  1.047754304053E-03
  3.067640508740E-04  2.028860847807E-05  4.544211756070E-05  2.658725560624E-04
  5.894360909366E-04  9.457221648458E-04  1.283483046915E-03  1.568022598978E-03
  1.778598609425E-03  1.905891185583E-03  1.949586380191E-03  1.916119517764E-03
  1.816616696054E-03  1.665065833889E-03  1.476740638437E-03  1.266892236973E-03
  1.049714263744E-03  8.375782415935E-04  6.405274952393E-04  4.660099221486E-04
  3.188230538105E-04  2.012392563269E-04  1.132748841614E-04  5.306488684732E-05
  1.730386710308E-05  1.715901524170E-06  1.518467961426E-06  1.185038806174E-05
  2.813951197836E-05  4.639259181247E-05  6.339700058220E-05  7.683121083208E-05
  8.528780258393E-05  8.821880058678E-05  8.581797801304E-05  7.885812451079E-05
  6.850298565714E-05  5.611358797548E-05  4.306705060642E-05  3.060296216197E-05
  1.970829409888E-05  1.104704335854E-05  4.935813376845E-06  1.361831158664E-06
  3.590182890344E-08  4.698852962395E-07  2.066690162755E-06  4.210621481064E-06
  6.347138107407E-06  8.043466143618E-06  9.024740526799E-06  9.183978341979E-06
  8.567755396997E-06  7.342510492023E-06  5.748564632547E-06  4.049967166881E-06
  2.488081331725E-06  1.245486882347E-06  4.245595341710E-07  4.236458805398E-08
  0.000000000000E+00  0.000000000000E+00  0.000000000000E+00  0.000000000000E+00
  0.000000000000E+00  0.000000000000E+00  0.000000000000E+00  0.000000000000E+00
  0.000000000000E+00  0.000000000000E+00  0.000000000000E+00  0.000000000000E+00
  0.000000000000E+00  0.000000000000E+00  0.000000000000E+00  0.000000000000E+00
  0.000000000000E+00  0.000000000000E+00  0.000000000000E+00  0.000000000000E+00
  0.000000000000E+00  0.000000000000E+00  0.000000000000E+00  0.000000000000E+00
  0.000000000000E+00  0.000000000000E+00  0.000000000000E+00  0.000000000000E+00
  0.000000000000E+00  0.000000000000E+00  0.000000000000E+00  0.000000000000E+00
  0.000000000000E+00  0.000000000000E+00  0.000000000000E+00
</data>
</radfunc>
</pseudocore-charge>
<semilocal-potentials set="scalar_relativistic">
<slps n="5" l="s" rc="1.45722069575" eref="-3.74179447707">
<radfunc>
<data npts="275">
  5.162747414385E+00  5.154692715850E+00  5.130634568998E+00  5.090563974690E+00
  5.034990174197E+00  4.962159856010E+00  4.869736902866E+00  4.764449065360E+00
  4.646752739718E+00  4.510412317270E+00  4.357898337839E+00  4.193510067179E+00
  3.996735838689E+00  3.793411041983E+00  3.556383262202E+00  3.322665037478E+00
  3.057177605369E+00  2.809054910862E+00  2.534134563971E+00  2.230120045702E+00
  1.894662712805E+00  1.602069130995E+00  1.286641255483E+00  9.472130297072E-01
  5.826715600020E-01  1.919815781238E-01 -2.257872601561E-01 -5.573689061249E-01
 -9.049088375292E-01 -1.268621817733E+00 -1.648653662658E+00 -2.045072982992E+00
 -2.457862987672E+00 -2.886913504904E+00 -3.332013392735E+00 -3.792843523389E+00
 -4.268970533210E+00 -4.759841531961E+00 -5.094951049969E+00 -5.436083744801E+00
 -5.782982771911E+00 -6.135365988720E+00 -6.492926025348E+00 -6.855330504826E+00
 -7.222222415926E+00 -7.593220639857E+00 -7.967920629983E+00 -8.345895241577E+00
 -8.726695706377E+00 -9.109852744428E+00 -9.494877803469E+00 -9.881264413928E+00
 -1.026848964552E+01 -1.065601564953E+01 -1.104329126929E+01 -1.142975369961E+01
 -1.181483017528E+01 -1.219793966756E+01 -1.257849456713E+01 -1.295590233238E+01
 -1.332956708159E+01 -1.369889110874E+01 -1.406327630379E+01 -1.442212545947E+01
 -1.477484344882E+01 -1.512083825985E+01 -1.545952187615E+01 -1.562593950388E+01
 -1.579031099520E+01 -1.595256426421E+01 -1.611262757922E+01 -1.627042957072E+01
 -1.642589923671E+01 -1.657896594556E+01 -1.672955943634E+01 -1.687760981672E+01
 -1.702304755864E+01 -1.716580349176E+01 -1.730580879478E+01 -1.744299498494E+01
 -1.757729390570E+01 -1.770863771284E+01 -1.783695885922E+01 -1.796219007835E+01
 -1.808426436700E+01 -1.820311496717E+01 -1.831867534765E+01 -1.843087918542E+01
 -1.853966034729E+01 -1.864495287202E+01 -1.874669095339E+01 -1.884480892439E+01
 -1.893924124318E+01 -1.902992248102E+01 -1.911678731276E+01 -1.919977051018E+01
 -1.927880693888E+01 -1.935383155898E+01 -1.942477943036E+01 -1.949158572279E+01
 -1.955418573170E+01 -1.961251489994E+01 -1.966650884634E+01 -1.971610340147E+01
 -1.976123465133E+01 -1.980183898957E+01 -1.983785317876E+01 -1.986921442143E+01
 -1.989586044143E+01 -1.991772957623E+01 -1.993476088069E+01 -1.994689424292E+01
 -1.995407051276E+01 -1.995623164336E+01 -1.995332084636E+01 -1.994528276111E+01
 -1.993206363832E+01 -1.991361153860E+01 -1.988987654605E+01 -1.986081099740E+01
 -1.982636972678E+01 -1.978651032646E+01 -1.974119342363E+01 -1.969038297356E+01
 -1.963404656907E+01 -1.957215576661E+01 -1.950468642887E+01 -1.943161908420E+01
 -1.935293930286E+01 -1.926863809011E+01 -1.917871229642E+01 -1.908316504484E+01
 -1.898200617578E+01 -1.887525270945E+01 -1.876292932628E+01 -1.864506886602E+01
 -1.852171284603E+01 -1.839291200005E+01 -1.825872683867E+01 -1.811922823373E+01
 -1.797449802926E+01 -1.782462968262E+01 -1.766972894079E+01 -1.750991455819E+01
 -1.734531906424E+01 -1.717608959124E+01 -1.700238877585E+01 -1.682439575059E+01
 -1.664230724578E+01 -1.645633882620E+01 -1.626672629208E+01 -1.607372727870E+01
 -1.587762309498E+01 -1.567872084692E+01 -1.547735589775E+01 -1.527389472181E+01
 -1.506873821423E+01 -1.486232552114E+01 -1.465513845702E+01 -1.444770657339E+01
 -1.424061293722E+01 -1.403450066612E+01 -1.383008025065E+01 -1.362813767273E+01