<?xml version="1.0" encoding="UTF-8" ?>
<psml version="1.1" energy_unit="hartree" length_unit="bohr"
 uuid="f354b610-be6c-11e7-65da-e9a25fff43a6"
 xmlns="http://esl.cecam.org/PSML/ns/1.1">
<provenance creator="ONCVPSP-3.3.0+psml-3.3.0-73 (scalar-relativistic)"
 date="2017-10-31">
<annotation action="semilocal-pseudopotential-generation"
 action-cont="projectors-generation" />
<input-file name="oncvpsp-input">
<![CDATA[# atsym z nc nv iexc psfile
Lu 71 9 5 4 upf
# n l f
1 0 2.0
2 0 2.0
2 1 6.0
3 0 2.0
3 1 6.0
3 2 10.0
4 0 2.0
4 1 6.0
4 2 10.0
5 0 2.0
5 1 6.0
4 3 14.0
5 2 1.0
6 0 2.0
# lmax
3
# l rc ep ncon nbas qcut
0 1.55 0.0 4 8 7.5
1 1.6 0.0 4 8 8.0
2 1.45 0.0 4 8 9.0
3 1.85 0.0 4 8 9.8
# lloc lpopt rc5 dvloc0
4 5 1.3 0
# l nproj debl
0 2 1.0
1 2 1.0
2 2 1.0
3 2 1.5
# icmod fcfact rcfact
3 4.0 1.4
# epsh1 epsh2 depsh
-12.0 12.0 0.02
# rlmax drl
6.0 0.01
 0
]]>
</input-file>
</provenance>
<pseudo-atom-spec atomic-label="Lu" atomic-number="71" z-pseudo="25"
 flavor="Hamann&apos;s oncvpsp" relativity="scalar" spin-dft="no"
 core-corrections="yes">
<annotation pseudo-energy="-233.853063734" />
<exchange-correlation>
<annotation oncvpsp-xc-code="4" oncvpsp-xc-type="GGA -- Perdew-Burke-Ernzerhof" />
<libxc-info number-of-functionals="2">
<functional name="Perdew, Burke &amp; Ernzerhof (GGA)" type="exchange" id="101" />
<functional name="Perdew, Burke &amp; Ernzerhof (GGA)" type="correlation"
 id="130" />
</libxc-info>
</exchange-correlation>
<valence-configuration total-valence-charge="25">
<shell n="5" l="s" occupation="2" />
<shell n="5" l="p" occupation="6" />
<shell n="4" l="f" occupation="14" />
<shell n="5" l="d" occupation="1" />
<shell n="6" l="s" occupation="2" />
</valence-configuration>
</pseudo-atom-spec>
<grid npts="457">
<annotation type="sampled from oncvpsp log grid"
 recipe="r(i:1..N) = r1*exp(a*(i-1)) + r=0; resampled"
 recipe-cont="r1: scale; a: step" scale="0.704225352113E-05"
 step="0.119285708653E-01" delta="0.500000000000E-02" rmax="44.1107112591" />
<grid-data>
  0.000000000000E+00  5.037024290493E-03  1.006106072879E-02  1.509319543437E-02
  2.009617924206E-02  2.520828110912E-02  3.050924308962E-02  3.562690500806E-02
  4.110969416506E-02  4.631795440764E-02  5.156725138349E-02  5.673069230746E-02
  6.241114977700E-02  6.784623792449E-02  7.288008089934E-02  7.828740921208E-02
  8.409593355974E-02  8.926424963538E-02  9.475019689634E-02  1.005732961243E-01
  1.067542677972E-01  1.119714484380E-01  1.174435975630E-01  1.231831757198E-01
  1.292032524146E-01  1.355175358726E-01  1.421404042528E-01  1.473191090791E-01
  1.526864934285E-01  1.582494315994E-01  1.640150483464E-01  1.699907280058E-01
  1.761841239525E-01  1.826031684025E-01  1.892560825720E-01  1.961513872068E-01
  2.032979134951E-01  2.107048143783E-01  2.157920714167E-01  2.210021551890E-01
  2.263380312238E-01  2.318027366497E-01  2.373993819234E-01  2.431311526005E-01
  2.490013111489E-01  2.550131988053E-01  2.611702374773E-01  2.674759316909E-01
  2.739338705856E-01  2.805477299571E-01  2.873212743492E-01  2.942583591970E-01
  3.013629330215E-01  3.086390396764E-01  3.160908206503E-01  3.237225174241E-01
  3.315384738848E-01  3.395431387982E-01  3.477410683414E-01  3.561369286954E-01
  3.647354987019E-01  3.735416725825E-01  3.825604627253E-01  3.917970025374E-01
  4.012565493666E-01  4.109444874946E-01  4.208663312006E-01  4.259167271750E-01
  4.310277279011E-01  4.362000606359E-01  4.414344613636E-01  4.467316748999E-01
  4.520924549987E-01  4.575175644587E-01  4.630077752322E-01  4.685638685350E-01
  4.741866349574E-01  4.798768745769E-01  4.856353970718E-01  4.914630218367E-01
  4.973605780987E-01  5.033289050359E-01  5.093688518964E-01  5.154812781191E-01
  5.216670534565E-01  5.279270580980E-01  5.342621827952E-01  5.406733289887E-01
  5.471614089366E-01  5.537273458439E-01  5.603720739940E-01  5.670965388819E-01
  5.739016973485E-01  5.807885177167E-01  5.877579799293E-01  5.948110756884E-01
  6.019488085967E-01  6.091721942998E-01  6.164822606314E-01  6.238800477590E-01
  6.313666083321E-01  6.389430076321E-01  6.466103237237E-01  6.543696476084E-01
  6.622220833797E-01  6.701687483802E-01  6.782107733608E-01  6.863493026411E-01
  6.945854942728E-01  7.029205202041E-01  7.113555664465E-01  7.198918332439E-01
  7.285305352428E-01  7.372729016657E-01  7.461201764857E-01  7.550736186036E-01
  7.641345020268E-01  7.733041160511E-01  7.825837654437E-01  7.919747706291E-01
  8.014784678766E-01  8.110962094911E-01  8.208293640050E-01  8.306793163731E-01
  8.406474681696E-01  8.507352377876E-01  8.609440606411E-01  8.712753893687E-01
  8.817306940412E-01  8.923114623697E-01  9.030191999181E-01  9.138554303171E-01
  9.248216954809E-01  9.359195558267E-01  9.471505904966E-01  9.585163975826E-01
  9.700185943536E-01  9.816588174858E-01  9.934387232956E-01  1.005359987975E+00
  1.017424307831E+00  1.029633399525E+00  1.041989000319E+00  1.054492868323E+00
  1.067146782743E+00  1.079952544136E+00  1.092911974665E+00  1.106026918361E+00
  1.119299241382E+00  1.132730832278E+00  1.146323602266E+00  1.160079485493E+00
  1.174000439319E+00  1.188088444591E+00  1.202345505926E+00  1.216773651997E+00
  1.231374935821E+00  1.246151435051E+00  1.261105252271E+00  1.276238515298E+00
  1.291553377482E+00  1.307052018012E+00  1.322736642228E+00  1.338609481935E+00
  1.354672795718E+00  1.370928869267E+00  1.387380015698E+00  1.404028575886E+00
  1.420876918797E+00  1.437927441822E+00  1.455182571124E+00  1.472644761978E+00
  1.490316499121E+00  1.508200297111E+00  1.526298700676E+00  1.544614285084E+00
  1.563149656505E+00  1.581907452383E+00  1.600890341812E+00  1.620101025914E+00
  1.639542238225E+00  1.659216745083E+00  1.679127346024E+00  1.699276874177E+00
  1.719668196667E+00  1.740304215027E+00  1.761187865607E+00  1.782322119994E+00
  1.803709985434E+00  1.825354505260E+00  1.847258759323E+00  1.869425864434E+00
  1.891858974808E+00  1.914561282505E+00  1.937536017895E+00  1.960786450110E+00
  1.984315887512E+00  2.008127678162E+00  2.032225210300E+00  2.056611912823E+00
  2.081291255777E+00  2.106266750846E+00  2.131541951857E+00  2.157120455279E+00
  2.183005900742E+00  2.209201971551E+00  2.235712395210E+00  2.262540943952E+00
  2.289691435280E+00  2.317167732503E+00  2.344973745293E+00  2.373113430237E+00
  2.401590791399E+00  2.430409880896E+00  2.459574799467E+00  2.489089697061E+00
  2.518958773425E+00  2.549186278706E+00  2.579776514051E+00  2.610733832219E+00
  2.642062638206E+00  2.673767389865E+00  2.705852598543E+00  2.738322829725E+00
  2.771182703682E+00  2.804436896126E+00  2.838090138880E+00  2.872147220546E+00
  2.906612987193E+00  2.941492343039E+00  2.976790251156E+00  3.012511734170E+00
  3.048661874980E+00  3.085245817479E+00  3.122268767289E+00  3.159735992497E+00
  3.197652824407E+00  3.236024658300E+00  3.274856954199E+00  3.314155237649E+00
  3.353925100501E+00  3.394172201707E+00  3.434902268128E+00  3.476121095345E+00
  3.517834548489E+00  3.560048563071E+00  3.602769145828E+00  3.646002375578E+00
  3.689754404085E+00  3.734031456934E+00  3.778839834417E+00  3.824185912430E+00
  3.870076143379E+00  3.916517057100E+00  3.963515261785E+00  4.011077444927E+00
  4.059210374266E+00  4.107920898757E+00  4.157215949542E+00  4.207102540937E+00
  4.257587771428E+00  4.308678824685E+00  4.360382970581E+00  4.412707566228E+00
  4.465660057023E+00  4.519247977707E+00  4.573478953440E+00  4.628360700881E+00
  4.683901029291E+00  4.740107841643E+00  4.796989135743E+00  4.854553005372E+00
  4.912807641436E+00  4.971761333133E+00  5.031422469131E+00  5.091799538760E+00
  5.152901133226E+00  5.214735946824E+00  5.277312778186E+00  5.340640531524E+00
  5.404728217903E+00  5.469584956518E+00  5.535219975996E+00  5.601642615708E+00
  5.668862327096E+00  5.736888675021E+00  5.805731339122E+00  5.875400115191E+00
  5.945904916573E+00  6.017255775572E+00  6.089462844879E+00  6.162536399018E+00
  6.236486835806E+00  6.311324677836E+00  6.387060573970E+00  6.463705300857E+00
  6.541269764467E+00  6.619765001641E+00  6.699202181661E+00  6.779592607841E+00
  6.860947719135E+00  6.943279091764E+00  7.026598440866E+00  7.110917622156E+00
  7.196248633622E+00  7.282603617225E+00  7.369994860632E+00  7.458434798960E+00
  7.547936016547E+00  7.638511248746E+00  7.730173383731E+00  7.822935464335E+00
  7.916810689907E+00  8.011812418186E+00  8.107954167205E+00  8.205249617211E+00
  8.303712612617E+00  8.403357163969E+00  8.504197449937E+00  8.606247819336E+00
  8.709522793168E+00  8.814037066686E+00  8.919805511486E+00  9.026843177624E+00
  9.135165295755E+00  9.244787279304E+00  9.355724726656E+00  9.467993423376E+00
  9.581609344456E+00  9.696588656590E+00  9.812947720469E+00  9.930703093115E+00
  1.004987153023E+01  1.017046998859E+01  1.029251562846E+01  1.041602581600E+01
  1.054101812579E+01  1.066751034330E+01  1.079552046742E+01  1.092506671303E+01
  1.105616751359E+01  1.118884152375E+01  1.132310762203E+01  1.145898491350E+01
  1.159649273246E+01  1.173565064525E+01  1.187647845299E+01  1.201899619443E+01
  1.216322414876E+01  1.230918283855E+01  1.245689303261E+01  1.260637574900E+01
  1.275765225799E+01  1.291074408508E+01  1.306567301411E+01  1.322246109028E+01
  1.338113062336E+01  1.354170419084E+01  1.370420464113E+01  1.386865509682E+01
  1.403507895798E+01  1.420349990548E+01  1.437394190435E+01  1.454642920720E+01
  1.472098635768E+01  1.489763819398E+01  1.507640985230E+01  1.525732677053E+01
  1.544041469178E+01  1.562569966808E+01  1.581320806410E+01  1.600296656087E+01
  1.619500215960E+01  1.638934218551E+01  1.658601429174E+01  1.678504646324E+01
  1.698646702080E+01  1.719030462505E+01  1.739658828055E+01  1.760534733991E+01
  1.781661150799E+01  1.803041084609E+01  1.824677577624E+01  1.846573708556E+01
  1.868732593058E+01  1.891157384175E+01  1.913851272785E+01  1.936817488059E+01
  1.960059297915E+01  1.983580009490E+01  2.007382969604E+01  2.031471565239E+01
  2.055849224022E+01  2.080519414711E+01  2.105485647687E+01  2.130751475459E+01
  2.156320493165E+01  2.182196339083E+01  2.208382695152E+01  2.234883287494E+01
  2.261701886944E+01  2.288842309587E+01  2.316308417302E+01  2.344104118309E+01
  2.372233367729E+01  2.400700168142E+01  2.429508570160E+01  2.458662673002E+01
  2.488166625078E+01  2.518024624579E+01  2.548240920073E+01  2.578819811114E+01
  2.609765648848E+01  2.641082836634E+01  2.672775830674E+01  2.704849140642E+01
  2.737307330329E+01  2.770155018293E+01  2.803396878513E+01  2.837037641055E+01
  2.871082092748E+01  2.905535077861E+01  2.940401498795E+01  2.975686316780E+01
  3.011394552582E+01  3.047531287213E+01  3.084101662659E+01  3.121110882611E+01
  3.158564213203E+01  3.196466983761E+01  3.234824587566E+01  3.273642482617E+01
  3.312926192408E+01  3.352681306717E+01  3.392913482398E+01  3.433628444187E+01
  3.474831985517E+01  3.516529969343E+01  3.558728328975E+01  3.601433068923E+01
  3.644650265750E+01  3.688386068939E+01  3.732646701766E+01  3.777438462187E+01
  3.822767723734E+01  3.868640936418E+01  3.915064627655E+01  3.962045403187E+01
  4.009589948026E+01  4.057705027402E+01  4.106397487731E+01  4.155674257583E+01
  4.205542348674E+01  4.256008856859E+01  4.307080963141E+01  4.358765934699E+01
  4.411071125915E+01
</grid-data>
</grid>
<valence-charge total-charge="25" is-unscreening-charge="yes"
 rescaled-to-z-pseudo="no">
<radfunc>
<data npts="457">
  5.928329710435E-02  5.947738848069E-02  6.005797627734E-02  6.102788860873E-02
  6.237913535217E-02  6.416085189902E-02  6.644008303134E-02  6.906209815602E-02
  7.233731513424E-02  7.590295663590E-02  7.995430449703E-02  8.439883377366E-02
  8.983080210156E-02  9.557916334700E-02  1.014033420278E-01  1.082197262949E-01
  1.162215326324E-01  1.239672217664E-01  1.328742219735E-01  1.431531414561E-01
  1.550643562103E-01  1.659843139903E-01  1.783594635710E-01  1.924367698601E-01
  2.085166381664E-01  2.269663528376E-01  2.482370644620E-01  2.663714409851E-01
  2.866850745315E-01  3.095096097532E-01  3.352354428337E-01  3.643226460609E-01
  3.973138495968E-01  4.348493847490E-01  4.776850228703E-01  5.267126700322E-01
  5.829843964200E-01  6.477401863098E-01  6.963348351776E-01  7.498378017114E-01
  8.087989675683E-01  8.738297033225E-01  9.456090079193E-01  1.024890071164E+00
  1.112507244072E+00  1.209383388566E+00  1.316537561526E+00  1.435092968079E+00
  1.566285094809E+00  1.711469904688E+00  1.872131941548E+00  2.049892152233E+00
  2.246515188869E+00  2.463915901512E+00  2.704164672655E+00  2.969491179636E+00
  3.262286099198E+00  3.585100190979E+00  3.940640114571E+00  4.331760249880E+00
  4.761449705112E+00  5.232813614268E+00  5.749047750877E+00  6.313405422386E+00
  6.929155567080E+00  7.599530960964E+00  8.327665465621E+00  8.714326543948E+00
  9.116519320976E+00  9.534572340693E+00  9.968791622164E+00  1.041945718066E+01
  1.088681933116E+01  1.137109477552E+01  1.187246247647E+01  1.239105932412E+01
  1.292697560302E+01  1.348025027087E+01  1.405086606300E+01  1.463874444008E+01
  1.524374040040E+01  1.586563718196E+01  1.650414088372E+01  1.715887504020E+01
  1.782937518801E+01  1.851508346805E+01  1.921534331226E+01  1.992939426896E+01
  2.065636702619E+01  2.139527869782E+01  2.214502844252E+01  2.290439349074E+01
  2.367202565979E+01  2.444644844167E+01  2.522605475236E+01  2.600910543474E+01
  2.679372861004E+01  2.757791997459E+01  2.835954413938E+01  2.913633710951E+01
  2.990590999874E+01  3.066575407106E+01  3.141324719577E+01  3.214566179584E+01
  3.286017435993E+01  3.355387657719E+01  3.422378814024E+01  3.486687124573E+01
  3.548004680302E+01  3.606021234073E+01  3.660426157686E+01  3.710910559270E+01
  3.757169552178E+01  3.798904663552E+01  3.835826367440E+01  3.867656724061E+01
  3.894132103337E+01  3.915005967347E+01  3.930051682919E+01  3.939065332211E+01
  3.941868485998E+01  3.938310901457E+01  3.928273103764E+01  3.911668808726E+01
  3.888447142235E+01  3.858594611502E+01  3.822136783041E+01  3.779139623207E+01
  3.729710458948E+01  3.673998519266E+01  3.612195021861E+01  3.544532774485E+01
  3.471285266770E+01  3.392765235608E+01  3.309322695508E+01  3.221342434709E+01
  3.129240987921E+01  3.033463107376E+01  2.934477765016E+01  2.832773730015E+01
  2.728854777016E+01  2.623234591222E+01  2.516431446395E+01  2.408962740595E+01
  2.301339481712E+01  2.194060820208E+01  2.087608729648E+01  1.982442936289E+01
  1.878996196989E+01  1.777670019893E+01  1.678830914648E+01  1.582807248389E+01
  1.489886770557E+01  1.400314854121E+01  1.314293483214E+01  1.231980998302E+01
  1.153492590149E+01  1.078901513911E+01  1.008240975279E+01  9.415066225566E+00
  8.786595625468E+00  8.196298049607E+00  7.643200301772E+00  7.126095692007E+00
  6.643584827947E+00  6.194116291405E+00  5.776026158605E+00  5.387575425631E+00
  5.026984537151E+00  4.692464379014E+00  4.382243275603E+00  4.094589666738E+00
  3.827830200764E+00  3.580363431868E+00  3.350669882650E+00  3.137318680980E+00
  2.938970921894E+00  2.754380738791E+00  2.582395291885E+00  2.421954453157E+00
  2.272090171599E+00  2.131926678827E+00  2.000675512469E+00  1.877628303367E+00
  1.762151148647E+00  1.653678631414E+00  1.551708230618E+00  1.455795051799E+00
  1.365546868944E+00  1.280619430216E+00  1.200711963591E+00  1.125562816610E+00
  1.054943241463E+00  9.886438802579E-01  9.264593136966E-01  8.681862895337E-01
  8.136266652987E-01  7.625867011437E-01  7.148776426641E-01  6.703160484759E-01
  6.287240863451E-01  5.899297809807E-01  5.537672150452E-01  5.200766854940E-01
  4.887048174910E-01  4.595046383092E-01  4.323356137490E-01  4.070636497170E-01
  3.835610616881E-01  3.617065148436E-01  3.413849377208E-01  3.224874122367E-01
  3.049110429790E-01  2.885588085620E-01  2.733393979168E-01  2.591670341919E-01
  2.459612888576E-01  2.336468884231E-01  2.221535159516E-01  2.114156093011E-01
  2.013721577283E-01  1.919664981979E-01  1.831461124518E-01  1.748624256379E-01
  1.670706070882E-01  1.597293736838E-01  1.528007961539E-01  1.462501086132E-01
  1.400455216487E-01  1.341580392902E-01  1.285612802375E-01  1.232313037488E-01
  1.181464406108E-01  1.132871296095E-01  1.086357598935E-01  1.041765195824E-01
  9.989525090911E-02  9.577931214437E-02  9.181744641372E-02  8.799965754434E-02
  8.431709293734E-02  8.076193343066E-02  7.732729006309E-02  7.400710760359E-02
  7.079607467405E-02  6.768954026401E-02  6.468343641308E-02  6.177420681974E-02
  5.895874112313E-02  5.623431459669E-02  5.359853298861E-02  5.104928224276E-02
  4.858468283606E-02  4.620304847187E-02  4.390284887535E-02  4.168267644461E-02
  3.954121652031E-02  3.747722104724E-02  3.548948541195E-02  3.357682825241E-02
  3.173807404694E-02  2.997203830068E-02  2.827751515852E-02  2.665326728183E-02
  2.509801783468E-02  2.361044443068E-02  2.218917489574E-02  2.083278470450E-02
  1.953979595472E-02  1.830867772125E-02  1.713784767104E-02  1.602567478115E-02
  1.497048301914E-02  1.397055584192E-02  1.302414136972E-02  1.212945809459E-02
  1.128470098686E-02  1.048804786885E-02  9.737665932578E-03  9.031718287275E-03
  8.368370432790E-03  7.745796566316E-03  7.162185641769E-03  6.615747113517E-03
  6.104716308473E-03  5.627359382651E-03  5.181977829814E-03  4.766912520677E-03
  4.380547261049E-03  4.021311866236E-03  3.687684756877E-03  3.378195088143E-03
  3.091424429905E-03  2.826008020063E-03  2.580635616851E-03  2.354051978556E-03
  2.145057000951E-03  1.952505543701E-03  1.775306977552E-03  1.612424483378E-03
  1.462874135138E-03  1.325723791896E-03  1.200091843100E-03  1.085145776913E-03
  9.801007995859E-04  8.842177540223E-04  7.968034435240E-04  7.172023681865E-04
  6.448105810402E-04  5.790521697782E-04  5.193905296211E-04  4.653291714905E-04
  4.164041065221E-04  3.721829924719E-04  3.322641505474E-04  2.962748847110E-04
  2.638698915274E-04  2.347297144402E-04  2.085592454527E-04  1.850862762308E-04
  1.640601001402E-04  1.452501662958E-04  1.284447863447E-04  1.134498944015E-04
  1.000878603056E-04  8.819635615404E-05  7.762727587114E-05  6.824570741431E-05
  5.992895705476E-05  5.256562503216E-05  4.605473174472E-05  4.030489350688E-05
  3.523354678350E-05  3.076621969223E-05  2.683584945566E-05  2.338214438296E-05
  2.035098886839E-05  1.769388981179E-05  1.536746279605E-05  1.333295629838E-05
  1.155581216715E-05  1.000526056450E-05  8.653947556300E-06  7.477593525673E-06
  6.454680593617E-06  5.566167249013E-06  4.795228420432E-06  4.127019261910E-06
  3.548460973539E-06  3.048047033929E-06  2.615668284226E-06  2.242455371120E-06
  1.920637128067E-06  1.643413548553E-06  1.404842081651E-06  1.199736057420E-06
  1.023574126892E-06  8.724196778288E-07  7.428492623657E-07  6.318891455146E-07
  5.369591538626E-07  4.558230712064E-07  3.865448920964E-07  3.274503050528E-07
  2.770928344632E-07  2.342241237700E-07  1.977678925108E-07  1.667971461028E-07
  1.405142600417E-07  1.182335995159E-07  9.936637145638E-08  8.340743889484E-08
  6.992385736863E-08  5.854492015090E-08  4.895352349939E-08  4.087868508060E-08
  3.408906842906E-08  2.838738392331E-08  2.360555247760E-08  1.960053212935E-08
  1.625072010847E-08  1.345285395627E-08  1.111934496032E-08  9.175985719836E-09
  7.559981173976E-09  6.218259025830E-09  5.106021278571E-09  4.185503660703E-09
  3.424914137794E-09  2.797525564162E-09  2.280900887400E-09  1.856232241672E-09
  1.507777806459E-09  1.222382513435E-09  9.890705979204E-10  7.986996499992E-10
  6.436672569268E-10  5.176625715944E-10  4.154562168944E-10  3.327228649361E-10
  2.658916324707E-10  2.120201264409E-10  1.686885709048E-10  1.339109614292E-10
  1.060606366475E-10  8.380803788320E-11  6.606875678054E-11  5.196025201712E-11
  4.076585881941E-11  3.190492238750E-11  2.490806418339E-11  1.939674216968E-11
  1.506639607565E-11  1.167257968497E-11  9.019576642652E-12  6.951076670523E-12
  5.342557352974E-12  4.095074533325E-12  3.130213336248E-12  2.385993192311E-12
  1.813555099129E-12  1.374488669511E-12  1.038681116850E-12  7.825909221126E-13
  5.878661490486E-13  4.402414750941E-13  3.286615542367E-13  2.445809550615E-13
  2.390815708156E-17  1.498042941179E-17  9.336625186403E-18  5.787826876663E-18
  3.568396066022E-18  2.187933132705E-18  1.334042698071E-18  8.088183183579E-19
  4.875827265453E-19  2.922347746472E-19  1.741291702888E-19  1.031422647315E-19
  6.072903265649E-20  3.554015600827E-20  2.067159000338E-20  1.194890087125E-20
  6.863554769546E-21  3.917459094470E-21  2.221574114865E-21  1.251654446923E-21
  7.005534850287E-22  3.894904514306E-22  2.150878940730E-22  1.179676900224E-22
  6.425436923985E-23  0.000000000000E+00  0.000000000000E+00  0.000000000000E+00
  0.000000000000E+00
</data>
</radfunc>
</valence-charge>
<pseudocore-charge matching-radius="0.711355566447"
 number-of-continuous-derivatives="4">
<annotation model-charge-form="Teter function with specified parameters" />
<radfunc>
<data npts="290">
  1.466826669165E+02  1.466708120819E+02  1.466353751199E+02  1.465762578403E+02
  1.464940723205E+02  1.463860207619E+02  1.462483328897E+02  1.460906992010E+02
  1.458949721969E+02  1.456834185793E+02  1.454450389524E+02  1.451860298964E+02
  1.448731324178E+02  1.445464951300E+02  1.442203480137E+02  1.438448649335E+02
  1.434127345706E+02  1.430033674301E+02  1.425434477326E+02  1.420269193577E+02
  1.414470508007E+02  1.409325585336E+02  1.403685742442E+02  1.397505593057E+02
  1.390736055066E+02  1.383324149735E+02  1.375212813471E+02  1.368633587804E+02
  1.361599046966E+02  1.354080289841E+02  1.346046982042E+02  1.337467349695E+02
  1.328308186043E+02  1.318534873387E+02  1.308111423202E+02  1.297000537620E+02
  1.285163695826E+02  1.272561269315E+02  1.263714317593E+02  1.254496857263E+02
  1.244896538260E+02  1.234900919417E+02  1.224497506111E+02  1.213673792666E+02
  1.202417309879E+02  1.190715678008E+02  1.178556665611E+02  1.165928254577E+02
  1.152818711720E+02  1.139216667289E+02  1.125111200715E+02  1.110491933919E+02
  1.095349132458E+02  1.079673814736E+02  1.063457869468E+02  1.046694181523E+02
  1.029376766157E+02  1.011500911603E+02  9.930633298131E+01  9.740623150574E+01
  9.544979099052E+01  9.343720779384E+01  9.136888823492E+01  8.924546693405E+01
  8.706782549928E+01  8.483711139822E+01  8.255475682224E+01  8.139474436394E+01
  8.022249731731E+01  7.903828300108E+01  7.784238991972E+01  7.663512828170E+01
  7.541683049723E+01  7.418785165248E+01  7.294856995709E+01  7.169938716163E+01
  7.044072894145E+01  6.917304524325E+01  6.789681059062E+01  6.661252434452E+01
  6.532071091455E+01  6.402191991697E+01  6.271672627494E+01  6.140573025661E+01
  6.008955744654E+01  5.876885864584E+01  5.744430969635E+01  5.611661122421E+01
  5.478648829812E+01  5.345468999762E+01  5.212198888680E+01  5.078918038893E+01
  4.945708205751E+01  4.812653273972E+01  4.679839162799E+01  4.547353719609E+01
  4.415286601623E+01  4.283729145399E+01  4.152774223845E+01  4.022516090514E+01
  3.893050211027E+01  3.764473081492E+01  3.636882033883E+01  3.510375028393E+01
  3.385050432868E+01  3.261006789505E+01  3.138342569095E+01  3.017155913181E+01
  2.897544364623E+01  2.779604587152E+01  2.663432074628E+01  2.549120850831E+01
  2.436763160750E+01  2.326449154446E+01  2.218266564740E+01  2.112300380053E+01
  2.008632513933E+01  1.907341472887E+01  1.808502024292E+01  1.712184866310E+01
  1.618456301829E+01  1.527377918596E+01  1.439006277820E+01  1.353392613607E+01
  1.270582545708E+01  1.190615808111E+01  1.113525996066E+01  1.039340334189E+01
  9.680794682638E+00  8.997572833888E+00  8.343807510446E+00  7.719498075952E+00
  7.124572666330E+00  6.558887674334E+00  6.022227616102E+00  5.514305398473E+00
  5.034763003320E+00  4.583172602192E+00  4.159038111277E+00  3.761797192989E+00
  3.390823706441E+00  3.045430604624E+00  2.724873271454E+00  2.428353286807E+00
  2.155022602489E+00  1.903988106699E+00  1.674316549083E+00  1.465039792977E+00
  1.275160356056E+00  1.103657195312E+00  9.494916873371E-01  8.116137502469E-01
  6.889680494850E-01  5.805002261913E-01  4.851630840217E-01  4.019226683072E-01
  3.297641703688E-01  2.676975897597E-01  2.147630882563E-01  1.700359716345E-01
  1.326312387011E-01  1.017076417021E-01  7.647120811947E-02  5.617818093790E-02
  4.013734265781E-02  2.771169754433E-02  1.831949669337E-02  1.143460129798E-02
  6.586190800937E-03  3.357834187347E-03  1.385954239563E-03  3.577258592874E-04
  8.460258611516E-06  1.185366247949E-04  5.099514692945E-04  1.042562989084E-03
  1.610113132404E-03  2.136113443125E-03  2.569681977908E-03  2.881417527981E-03
  3.059393982041E-03  3.105351965644E-03  3.031156996290E-03  2.855583499244E-03
  2.601472419294E-03  2.293297201253E-03  1.955159031100E-03  1.609217922517E-03
  1.274552032204E-03  9.664240423608E-04  6.959211045433E-04  4.699242070980E-04
  2.913543597505E-04  1.596370472862E-04  7.132324195476E-05  2.080500169786E-05
  1.066293217456E-06  4.414987540729E-06  2.314965329603E-05  5.012435354417E-05
  7.918555376069E-05  1.054668047710E-04  1.255383632557E-04  1.374196424509E-04
  1.404716846756E-04  1.351941509087E-04  1.229562084695E-04  1.056929217874E-04
  8.559827136035E-05  6.484291140980E-05  4.533959893489E-05  2.857243297362E-05
  1.549831149534E-05  6.521096027595E-06  1.531626724823E-06  6.408733448029E-10
  1.107366331492E-06  3.884443325762E-06  7.359993325478E-06  1.067997132576E-05
  1.319803761744E-05  1.452549807546E-05  1.453968625963E-05  1.335474620975E-05
  1.126341794688E-05  8.661562638083E-06  5.968440194034E-06  3.555082389889E-06
  1.690681616847E-06  5.131834891019E-07  2.586217226022E-08  0.000000000000E+00
  0.000000000000E+00  0.000000000000E+00  0.000000000000E+00  0.000000000000E+00
  0.000000000000E+00  0.000000000000E+00  0.000000000000E+00  0.000000000000E+00
  0.000000000000E+00  0.000000000000E+00  0.000000000000E+00  0.000000000000E+00
  0.000000000000E+00  0.000000000000E+00  0.000000000000E+00  0.000000000000E+00
  0.000000000000E+00  0.000000000000E+00  0.000000000000E+00  0.000000000000E+00
  0.000000000000E+00  0.000000000000E+00  0.000000000000E+00  0.000000000000E+00
  0.000000000000E+00  0.000000000000E+00  0.000000000000E+00  0.000000000000E+00
  0.000000000000E+00  0.000000000000E+00  0.000000000000E+00  0.000000000000E+00
  0.000000000000E+00  0.000000000000E+00  0.000000000000E+00  0.000000000000E+00
  0.000000000000E+00  0.000000000000E+00  0.000000000000E+00  0.000000000000E+00
  0.000000000000E+00  0.000000000000E+00  0.000000000000E+00  0.000000000000E+00
  0.000000000000E+00  0.000000000000E+00  0.000000000000E+00  0.000000000000E+00
  0.000000000000E+00  0.000000000000E+00  0.000000000000E+00  0.000000000000E+00
  0.000000000000E+00  0.000000000000E+00  0.000000000000E+00  0.000000000000E+00
  0.000000000000E+00  0.000000000000E+00
</data>
</radfunc>
</pseudocore-charge>
<semilocal-potentials set="scalar_relativistic">
<slps n="5" l="s" rc="1.56314965651" eref="-2.24388504982">
<radfunc>
<data npts="290">
  4.389959050338E+01  4.385369796458E+01  4.371682087345E+01  4.348949772872E+01
  4.317557271995E+01  4.276652437906E+01  4.225124333917E+01  4.166936555860E+01
  4.095856062001E+01  4.020446654862E+01  3.937189763088E+01  3.848722655737E+01
  3.744522026480E+01  3.638744608873E+01  3.536056604684E+01  3.421305260559E+01
  3.293624361830E+01  3.176781905318E+01  3.050036832923E+01  2.913093285998E+01
  2.765762364144E+01  2.640373516148E+01  2.508332934208E+01  2.369745864318E+01
  2.224790726958E+01  2.073723293271E+01  1.916879315718E+01  1.795703028828E+01
  1.671715297777E+01  1.545145759044E+01  1.416247305182E+01  1.285294493314E+01
  1.152581553664E+01  1.018420022708E+01  8.831360379574E+00  7.470673432192E+00
  6.105600637638E+00  4.739653197221E+00  3.830277523499E+00  2.923122262372E+00
  2.019220449764E+00  1.119592302674E+00  2.252409645025E-01 -6.628515484837E-01
 -1.543728158049E+00 -2.416460253760E+00 -3.280150906554E+00 -4.133937734917E+00
 -4.976995396588E+00 -5.808537683052E+00 -6.627819198613E+00 -7.434136610359E+00
 -8.226829459999E+00 -9.005280533157E+00 -9.768915786401E+00 -1.051720383708E+01
 -1.124965502595E+01 -1.196582006800E+01 -1.266528831242E+01 -1.334768563969E+01
 -1.401267203063E+01 -1.465993885170E+01 -1.528920591011E+01 -1.590021834410E+01
 -1.649274342532E+01 -1.706656736176E+01 -1.762149219931E+01 -1.789180920705E+01
 -1.815733292347E+01 -1.841804181657E+01 -1.867391485802E+01 -1.892493146313E+01
 -1.917107143754E+01 -1.941231493022E+01 -1.964864239220E+01 -1.988003454013E+01
 -2.010647232326E+01 -2.032793689229E+01 -2.054440956792E+01 -2.075587180694E+01
 -2.096230516328E+01 -2.116369124179E+01 -2.136001164180E+01 -2.155124788915E+01
 -2.173738135445E+01 -2.191839315721E+01 -2.209426405557E+01 -2.226497432303E+01
 -2.243050361403E+01 -2.259083082177E+01 -2.274593393234E+01 -2.289578987973E+01
 -2.304037440709E+01 -2.317966193895E+01 -2.331362546920E+01 -2.344223646856E+01
 -2.356546481419E+01 -2.368327874323E+01 -2.379564483037E+01 -2.390252798939E+01
 -2.400389149741E+01 -2.409969704110E+01 -2.418990478463E+01 -2.427447346018E+01
 -2.435336048405E+01 -2.442652210295E+01 -2.449391357775E+01 -2.455548941379E+01
 -2.461120364819E+01 -2.466101020538E+01 -2.470486333125E+01 -2.474271811400E+01
 -2.477453109610E+01 -2.480026097601E+01 -2.481986939107E+01 -2.483332176529E+01
 -2.484058819648E+01 -2.484164434979E+01 -2.483647231754E+01 -2.482506140169E+01
 -2.480740877426E+01 -2.478351997482E+01 -2.475340921162E+01 -2.471709944411E+01
 -2.467462223898E+01 -2.462601740670E+01 -2.457133244041E+01 -2.451062179151E+01
 -2.444394602484E+01 -2.437137090043E+01 -2.429296642796E+01 -2.420880593472E+01
 -2.411896517901E+01 -2.402352153011E+01 -2.392255322457E+01 -2.381613869834E+01
 -2.370435598627E+01 -2.358728217530E+01 -2.346499289674E+01 -2.333756184514E+01
 -2.320506031726E+01 -2.306755677377E+01 -2.292511643767E+01 -2.277780095684E+01
 -2.262566817222E+01 -2.246877204714E+01 -2.230716282566E+01 -2.214088749683E+01