<?xml version="1.0" encoding="UTF-8" ?>
<psml version="1.1" energy_unit="hartree" length_unit="bohr"
 uuid="ffbf9320-be6c-11e7-7f0b-6989fc7f9d29"
 xmlns="http://esl.cecam.org/PSML/ns/1.1">
<provenance creator="ONCVPSP-3.3.0+psml-3.3.0-73 (scalar-relativistic)"
 date="2017-10-31">
<annotation action="semilocal-pseudopotential-generation"
 action-cont="projectors-generation" />
<input-file name="oncvpsp-input">
<![CDATA[# atsym z nc nv iexc psfile
Hf 72 9 5 4 upf
# n l f
1 0 2.0
2 0 2.0
2 1 6.0
3 0 2.0
3 1 6.0
3 2 10.0
4 0 2.0
4 1 6.0
4 2 10.0
5 0 2.0
5 1 6.0
4 3 14.0
5 2 2.0
6 0 2.0
# lmax
3
# l rc ep ncon nbas qcut
0 1.55 0.0 4 8 7.5
1 1.6 0.0 4 8 8.0
2 1.4 0.0 4 8 9.2
3 1.6 0.0 4 8 11.4
# lloc lpopt rc5 dvloc0
4 5 1.3 0.0
# l nproj debl
0 2 1.0
1 2 1.0
2 2 1.0
3 2 1.5
# icmod fcfact
3 3 1.45
# epsh1 epsh2 depsh
-12.0 12.0 0.02
# rlmax drl
6.0 0.01
 0
]]>
</input-file>
</provenance>
<pseudo-atom-spec atomic-label="Hf" atomic-number="72" z-pseudo="26"
 flavor="Hamann&apos;s oncvpsp" relativity="scalar" spin-dft="no"
 core-corrections="yes">
<annotation pseudo-energy="-270.767592910" />
<exchange-correlation>
<annotation oncvpsp-xc-code="4" oncvpsp-xc-type="GGA -- Perdew-Burke-Ernzerhof" />
<libxc-info number-of-functionals="2">
<functional name="Perdew, Burke &amp; Ernzerhof (GGA)" type="exchange" id="101" />
<functional name="Perdew, Burke &amp; Ernzerhof (GGA)" type="correlation"
 id="130" />
</libxc-info>
</exchange-correlation>
<valence-configuration total-valence-charge="26">
<shell n="5" l="s" occupation="2" />
<shell n="5" l="p" occupation="6" />
<shell n="4" l="f" occupation="14" />
<shell n="5" l="d" occupation="2" />
<shell n="6" l="s" occupation="2" />
</valence-configuration>
</pseudo-atom-spec>
<grid npts="457">
<annotation type="sampled from oncvpsp log grid"
 recipe="r(i:1..N) = r1*exp(a*(i-1)) + r=0; resampled"
 recipe-cont="r1: scale; a: step" scale="0.694444444444E-05"
 step="0.119285708653E-01" delta="0.500000000000E-02" rmax="44.0200392416" />
<grid-data>
  0.000000000000E+00  5.026670407229E-03  1.004037965951E-02  1.506217053265E-02
  2.029552887432E-02  2.545834165589E-02  3.081188800123E-02  3.598031598865E-02
  4.102519090483E-02  4.622274527913E-02  5.146125203343E-02  5.661407921772E-02
  6.228286019135E-02  6.770677621320E-02  7.273027184416E-02  7.812648509314E-02
  8.392306969631E-02  8.908076201112E-02  9.455543260272E-02  1.003665621267E-01
  1.065348284690E-01  1.117412849051E-01  1.172021857236E-01  1.229299658586E-01
  1.289376679513E-01  1.352389720489E-01  1.418482267551E-01  1.470162864660E-01
  1.523726378587E-01  1.579241411011E-01  1.636779063026E-01  1.696413026204E-01
  1.758219676977E-01  1.822278174452E-01  1.888670561800E-01  1.957481871331E-01
  2.028800233396E-01  2.102716989265E-01  2.153484988254E-01  2.205478729811E-01
  2.258727808263E-01  2.313262532466E-01  2.369113943050E-01  2.426313830091E-01
  2.484894751204E-01  2.544890050078E-01  2.606333875447E-01  2.669261200535E-01
  2.733707842961E-01  2.799710485122E-01  2.867306695074E-01  2.936534947920E-01
  3.007434647703E-01  3.080046149837E-01  3.154410784079E-01  3.230570878049E-01
  3.308569781329E-01  3.388451890129E-01  3.470262672565E-01  3.554048694531E-01
  3.639857646212E-01  3.727738369222E-01  3.817740884408E-01  3.909916420322E-01
  4.004317442374E-01  4.100997682703E-01  4.200012170754E-01  4.250412316803E-01
  4.301417264604E-01  4.353034271780E-01  4.405270683041E-01  4.458133931238E-01
  4.511631538412E-01  4.565771116873E-01  4.620560370276E-01  4.676007094719E-01
  4.732119179856E-01  4.788904610014E-01  4.846371465334E-01  4.904527922918E-01
  4.963382257993E-01  5.022942845089E-01  5.083218159230E-01  5.144216777141E-01
  5.205947378467E-01  5.268418747008E-01  5.331639771972E-01  5.395619449236E-01
  5.460366882627E-01  5.525891285218E-01  5.592201980641E-01  5.659308404409E-01
  5.727220105262E-01  5.795946746525E-01  5.865498107483E-01  5.935884084773E-01
  6.007114693790E-01  6.079200070116E-01  6.152150470957E-01  6.225976276608E-01
  6.300687991928E-01  6.376296247831E-01  6.452811802805E-01  6.530245544439E-01
  6.608608490972E-01  6.687911792863E-01  6.768166734378E-01  6.849384735190E-01
  6.931577352013E-01  7.014756280237E-01  7.098933355600E-01  7.184120555867E-01
  7.270330002537E-01  7.357573962568E-01  7.445864850118E-01  7.535215228320E-01
  7.625637811060E-01  7.717145464792E-01  7.809751210370E-01  7.903468224894E-01
  7.998309843593E-01  8.094289561716E-01  8.191421036457E-01  8.289718088894E-01
  8.389194705961E-01  8.489865042433E-01  8.591743422942E-01  8.694844344017E-01
  8.799182476145E-01  8.904772665859E-01  9.011629937849E-01  9.119769497104E-01
  9.229206731069E-01  9.339957211842E-01  9.452036698384E-01  9.565461138764E-01
  9.680246672429E-01  9.796409632499E-01  9.913966548089E-01  1.003293414667E+00
  1.015332935643E+00  1.027516930870E+00  1.039847134041E+00  1.052325299649E+00
  1.064953203245E+00  1.077732641684E+00  1.090665433384E+00  1.103753418585E+00
  1.116998459608E+00  1.130402441123E+00  1.143967270417E+00  1.157694877662E+00
  1.171587216193E+00  1.185646262788E+00  1.199874017941E+00  1.214272506157E+00
  1.228843776230E+00  1.243589901545E+00  1.258512980364E+00  1.273615136128E+00
  1.288898517762E+00  1.304365299975E+00  1.320017683574E+00  1.335857895777E+00
  1.351888190527E+00  1.368110848813E+00  1.384528178999E+00  1.401142517147E+00
  1.417956227353E+00  1.434971702081E+00  1.452191362506E+00  1.469617658856E+00
  1.487253070762E+00  1.505100107611E+00  1.523161308903E+00  1.541439244609E+00
  1.559936515545E+00  1.578655753731E+00  1.597599622776E+00  1.616770818249E+00
  1.636172068068E+00  1.655806132885E+00  1.675675806480E+00  1.695783916157E+00
  1.716133323151E+00  1.736726923029E+00  1.757567646106E+00  1.778658457859E+00
  1.800002359353E+00  1.821602387665E+00  1.843461616317E+00  1.865583155713E+00
  1.887970153582E+00  1.910625795425E+00  1.933553304970E+00  1.956755944629E+00
  1.980237015965E+00  2.003999860157E+00  2.028047858478E+00  2.052384432780E+00
  2.077013045974E+00  2.101937202525E+00  2.127160448956E+00  2.152686374343E+00
  2.178518610835E+00  2.204660834165E+00  2.231116764175E+00  2.257890165345E+00
  2.284984847329E+00  2.312404665497E+00  2.340153521483E+00  2.368235363741E+00
  2.396654188106E+00  2.425414038363E+00  2.454519006824E+00  2.483973234905E+00
  2.513780913724E+00  2.543946284689E+00  2.574473640105E+00  2.605367323787E+00
  2.636631731672E+00  2.668271312452E+00  2.700290568202E+00  2.732694055020E+00
  2.765486383680E+00  2.798672220284E+00  2.832256286928E+00  2.866243362371E+00
  2.900638282719E+00  2.935445942112E+00  2.970671293417E+00  3.006319348938E+00
  3.042395181126E+00  3.078903923299E+00  3.115850770379E+00  3.153240979623E+00
  3.191079871379E+00  3.229372829835E+00  3.268125303793E+00  3.307342807439E+00
  3.347030921128E+00  3.387195292182E+00  3.427841635688E+00  3.468975735316E+00
  3.510603444140E+00  3.552730685469E+00  3.595363453695E+00  3.638507815139E+00
  3.682169908921E+00  3.726355947828E+00  3.771072219202E+00  3.816325085833E+00
  3.862120986863E+00  3.908466438705E+00  3.955368035969E+00  4.002832452401E+00
  4.050866441830E+00  4.099476839132E+00  4.148670561201E+00  4.198454607936E+00
  4.248836063231E+00  4.299822095990E+00  4.351419961142E+00  4.403637000675E+00
  4.456480644683E+00  4.509958412420E+00  4.564077913369E+00  4.618846848329E+00
  4.674273010509E+00  4.730364286635E+00  4.787128658075E+00  4.844574201972E+00
  4.902709092395E+00  4.961541601504E+00  5.021080100722E+00  5.081333061931E+00
  5.142309058674E+00  5.204016767378E+00  5.266464968587E+00  5.329662548210E+00
  5.393618498788E+00  5.458341920774E+00  5.523842023823E+00  5.590128128109E+00
  5.657209665646E+00  5.725096181634E+00  5.793797335813E+00  5.863322903843E+00
  5.933682778689E+00  6.004886972034E+00  6.076945615698E+00  6.149868963086E+00
  6.223667390643E+00  6.298351399331E+00  6.373931616123E+00  6.450418795517E+00
  6.527823821063E+00  6.606157706915E+00  6.685431599398E+00  6.765656778591E+00
  6.846844659934E+00  6.929006795854E+00  7.012154877404E+00  7.096300735933E+00
  7.181456344764E+00  7.267633820901E+00  7.354845426752E+00  7.443103571873E+00
  7.532420814735E+00  7.622809864512E+00  7.714283582886E+00  7.806854985881E+00
  7.900537245711E+00  7.995343692660E+00  8.091287816972E+00  8.188383270776E+00
  8.286643870025E+00  8.386083596465E+00  8.486716599623E+00  8.588557198818E+00
  8.691619885204E+00  8.795919323827E+00  8.901470355712E+00  9.008287999981E+00
  9.116387455981E+00  9.225784105453E+00  9.336493514718E+00  9.448531436895E+00
  9.561913814137E+00  9.676656779907E+00  9.792776661266E+00  9.910289981201E+00
  1.002921346098E+01  1.014956402251E+01  1.027135879078E+01  1.039461509627E+01
  1.051935047742E+01  1.064558268315E+01  1.077332967535E+01  1.090260963145E+01
  1.103344094703E+01  1.116584223839E+01  1.129983234526E+01  1.143543033340E+01
  1.157265549740E+01  1.171152736337E+01  1.185206569173E+01  1.199429048003E+01
  1.213822196579E+01  1.228388062938E+01  1.243128719693E+01  1.258046264329E+01
  1.273142819501E+01  1.288420533335E+01  1.303881579735E+01  1.319528158692E+01
  1.335362496597E+01  1.351386846556E+01  1.367603488714E+01  1.384014730579E+01
  1.400622907346E+01  1.417430382234E+01  1.434439546821E+01  1.451652821383E+01
  1.469072655239E+01  1.486701527102E+01  1.504541945427E+01  1.522596448773E+01
  1.540867606158E+01  1.559358017432E+01  1.578070313641E+01  1.597007157405E+01
  1.616171243293E+01  1.635565298213E+01  1.655192081792E+01  1.675054386773E+01
  1.695155039414E+01  1.715496899887E+01  1.736082862686E+01  1.756915857038E+01
  1.777998847323E+01  1.799334833491E+01  1.820926851492E+01  1.842777973710E+01
  1.864891309395E+01  1.887270005108E+01  1.909917245169E+01  1.932836252111E+01
  1.956030287136E+01  1.979502650582E+01  2.003256682389E+01  2.027295762577E+01
  2.051623311728E+01  2.076242791469E+01  2.101157704967E+01  2.126371597426E+01
  2.151888056596E+01  2.177710713275E+01  2.203843241834E+01  2.230289360736E+01
  2.257052833065E+01  2.284137467062E+01  2.311547116666E+01  2.339285682066E+01
  2.367357110251E+01  2.395765395574E+01  2.424514580321E+01  2.453608755285E+01
  2.483052060348E+01  2.512848685072E+01  2.543002869293E+01  2.573518903725E+01
  2.604401130570E+01  2.635653944136E+01  2.667281791466E+01  2.699289172964E+01
  2.731680643039E+01  2.764460810756E+01  2.797634340485E+01  2.831205952571E+01
  2.865180424001E+01  2.899562589089E+01  2.934357340158E+01  2.969569628240E+01
  3.005204463779E+01  3.041266917345E+01  3.077762120353E+01  3.114695265797E+01
  3.152071608987E+01  3.189896468294E+01  3.228175225914E+01  3.266913328625E+01
  3.306116288568E+01  3.345789684031E+01  3.385939160240E+01  3.426570430162E+01
  3.467689275324E+01  3.509301546628E+01  3.551413165188E+01  3.594030123170E+01
  3.637158484648E+01  3.680804386464E+01  3.724974039101E+01  3.769673727571E+01
  3.814909812302E+01  3.860688730049E+01  3.907016994810E+01  3.953901198747E+01
  4.001348013132E+01  4.049364189290E+01  4.097956559561E+01  4.147132038276E+01
  4.196897622736E+01  4.247260394208E+01  4.298227518939E+01  4.349806249166E+01
  4.402003924156E+01
</grid-data>
</grid>
<valence-charge total-charge="26" is-unscreening-charge="yes"
 rescaled-to-z-pseudo="no">
<radfunc>
<data npts="457">
  2.003004103318E-01  2.006175269477E-01  2.015658806608E-01  2.031493898737E-01
  2.054761229771E-01  2.084509097077E-01  2.122529277461E-01  2.166229561193E-01
  2.215599747361E-01  2.273523936972E-01  2.339322809934E-01  2.411527491948E-01
  2.499862488696E-01  2.593523296263E-01  2.688685953929E-01  2.800496094692E-01
  2.932477765215E-01  3.061104386908E-01  3.210205425186E-01  3.384003482416E-01
  3.587890702550E-01  3.777271993942E-01  3.994813662868E-01  4.246087844659E-01
  4.538034295578E-01  4.879326642829E-01  5.280835715017E-01  5.629573000940E-01
  6.026806320817E-01  6.480869823218E-01  7.001662335762E-01  7.600936736451E-01
  8.292637207725E-01  9.093290130432E-01  1.002245428141E+00  1.110323554090E+00
  1.236287034577E+00  1.383338045307E+00  1.494915801010E+00  1.618785289884E+00
  1.756346382576E+00  1.909146058129E+00  2.078890272212E+00  2.267455977308E+00
  2.476903085964E+00  2.709486112233E+00  2.967665161695E+00  3.254115866504E+00
  3.571737778356E+00  3.923660639162E+00  4.313247846843E+00  4.744096322891E+00
  5.220031870810E+00  5.745098992556E+00  6.323544007101E+00  6.959790195969E+00
  7.658403591151E+00  8.424047929029E+00  9.261427229641E+00  1.017521443553E+01
  1.116996457259E+01  1.225001099284E+01  1.341934344432E+01  1.468146700597E+01
  1.603924134663E+01  1.749470033862E+01  1.904885279746E+01  1.986292109027E+01
  2.070146604799E+01  2.156422672741E+01  2.245083514549E+01  2.336080859060E+01
  2.429354191257E+01  2.524829985269E+01  2.622420948186E+01  2.722025282273E+01
  2.823525973902E+01  2.926790118287E+01  3.031668289855E+01  3.137993968817E+01
  3.245583035174E+01  3.354233342078E+01  3.463724381005E+01  3.573817051722E+01
  3.684253550406E+01  3.794757389537E+01  3.905033563310E+01  4.014768872259E+01
  4.123632420510E+01  4.231276298644E+01  4.337336464409E+01  4.441433832533E+01
  4.543175583639E+01  4.642156700637E+01  4.737961739098E+01  4.830166835820E+01
  4.918341957209E+01  5.002053386139E+01  5.080866442641E+01  5.154348430123E+01
  5.222071794865E+01  5.283617482279E+01  5.338578468936E+01  5.386563444654E+01
  5.427200614145E+01  5.460141582854E+01  5.485065286766E+01  5.501681921319E+01
  5.509736820100E+01  5.509014229977E+01  5.499340925786E+01  5.480589604836E+01
  5.452681999428E+01  5.415591644453E+01  5.369346237145E+01  5.314029527239E+01
  5.249782678342E+01  5.176805045309E+01  5.095354317959E+01  5.005745988510E+01
  4.908352108809E+01  4.803599313619E+01  4.691966097887E+01  4.573979348897E+01
  4.450210148339E+01  4.321268874314E+01  4.187799648862E+01  4.050474192413E+01
  3.909985162154E+01  3.767039066253E+01  3.622348859762E+01  3.476626340200E+01
  3.330574470960E+01  3.184879768191E+01  3.040204891272E+01  2.897181578077E+01
  2.756404063565E+01  2.618423113696E+01  2.483740796119E+01  2.352806094686E+01
  2.226011456732E+01  2.103690340680E+01  1.986115807429E+01  1.873500172807E+01
  1.765995710995E+01  1.663696371169E+01  1.566640442680E+01  1.474814078894E+01
  1.388155567408E+01  1.306560215664E+01  1.229885706795E+01  1.157957771530E+01
  1.090576018556E+01  1.027519768050E+01  9.685537410450E+00  9.134334704832E+00
  8.619103175228E+00  8.137359980971E+00  7.686665486295E+00  7.264656850757E+00
  6.869075347371E+00  6.497787443452E+00  6.148799896006E+00  5.820269297231E+00
  5.510506649374E+00  5.217977647555E+00  4.941299403201E+00  4.679234351772E+00
  4.430681887998E+00  4.194667817642E+00  3.970332509428E+00  3.756919851383E+00
  3.553766856511E+00  3.360293182833E+00  3.175991376999E+00  3.000417755504E+00
  2.833184003946E+00  2.673949751043E+00  2.522416805960E+00  2.378324444013E+00
  2.241440678282E+00  2.111546054452E+00  1.988416387806E+00  1.871821264933E+00
  1.761528057161E+00  1.657301517146E+00  1.558905091051E+00  1.466101873206E+00
  1.378655532694E+00  1.296331181389E+00  1.218896180769E+00  1.146120886087E+00
  1.077779326958E+00  1.013649824060E+00  9.535155421424E-01  8.971649800701E-01
  8.443923990349E-01  7.949981905280E-01  7.487891860025E-01  7.055789104933E-01
  6.651877827776E-01  6.274432648311E-01  5.921799636426E-01  5.592396885463E-01
  5.284714673883E-01  4.997315249329E-01  4.728832269588E-01  4.477969935057E-01
  4.243501846977E-01  4.024269624884E-01  3.819181315551E-01  3.627209624056E-01
  3.447389995675E-01  3.278818575074E-01  3.120650066830E-01  2.972095518860E-01
  2.832420047901E-01  2.700940523902E-01  2.577023228169E-01  2.460081498387E-01
  2.349573372224E-01  2.244999240137E-01  2.145899517135E-01  2.051852342537E-01
  1.962471316496E-01  1.877403280993E-01  1.796326152931E-01  1.718946816229E-01
  1.644999079124E-01  1.574241702135E-01  1.506456501366E-01  1.441446530971E-01
  1.379034347739E-01  1.319060359942E-01  1.261381261749E-01  1.205868553790E-01
  1.152407149750E-01  1.100894068267E-01  1.051237208860E-01  1.003354210189E-01
  9.571713885059E-02  9.126227538816E-02  8.696491015080E-02  8.281971751833E-02
  7.882188999277E-02  7.496706805730E-02  7.125127630995E-02  6.767086554606E-02
  6.422246046378E-02  6.090291266916E-02  5.770925866313E-02  5.463868250002E-02
  5.168848281621E-02  4.885604393902E-02  4.613881079715E-02  4.353426736698E-02
  4.103991840198E-02  3.865327420486E-02  3.637183821475E-02  3.419309719245E-02
  3.211451379712E-02  3.013352135609E-02  2.824752063543E-02  2.645387843457E-02
  2.474992779934E-02  2.313296970499E-02  2.160027601522E-02  2.014909354773E-02
  1.877664907496E-02  1.748015509189E-02  1.625681618698E-02  1.510383585797E-02
  1.401842362104E-02  1.299780227087E-02  1.203921515883E-02  1.113993336866E-02
  1.029726268107E-02  9.508550232833E-03  8.771190789459E-03  8.082632565200E-03
  7.440382537951E-03  6.842011220334E-03  6.285156861139E-03  5.767529063259E-03
  5.286911815116E-03  4.841165942241E-03  4.428230994068E-03  4.046126588054E-03
  3.692953239096E-03  3.366892706765E-03  3.066207896305E-03  2.789242351715E-03
  2.534419380589E-03  2.300240850922E-03  2.085285699850E-03  1.888208193405E-03
  1.707735974945E-03  1.542667938109E-03  1.391871957694E-03  1.254282510386E-03
  1.128898210990E-03  1.014779300814E-03  9.110450669323E-04  8.168714009966E-04
  7.314878171837E-04  6.541759273802E-04  5.842655017993E-04  5.211328759491E-04
  4.641986939579E-04  4.129251662127E-04  3.668138403109E-04  3.254034273270E-04
  2.882676509989E-04  2.550131742489E-04  2.252776012107E-04  1.987275555860E-04
  1.750568356639E-04  1.539846459588E-04  1.352539051328E-04  1.186296296360E-04
  1.038973923146E-04  9.086185508047E-05  7.934537460387E-05  6.918667986851E-05
  6.023962030886E-05  5.237198313564E-05  4.546437833803E-05  3.940918973432E-05
  3.410959032566E-05  2.947862009237E-05  2.543832426119E-05  2.191894996707E-05
  1.885819913698E-05  1.620053533881E-05  1.389654226599E-05  1.190233147142E-05
  1.017899692234E-05  8.692113922014E-06  7.411279934770E-06  6.309694857788E-06
  5.363778305165E-06  4.552821506756E-06  3.858671474560E-06  3.265445151874E-06
  2.759271333431E-06  2.328058226892E-06  1.961284615642E-06  1.649812678314E-06
  1.385720620428E-06  1.162153376313E-06  9.731897439965E-07  8.137244205443E-07
  6.793635095017E-07  5.663321745005E-07  4.713932130642E-07  3.917754213721E-07
  3.251107137084E-07  2.693790490736E-07  2.228603016274E-07  1.840922910424E-07
  1.518342633363E-07  1.250351822536E-07  1.028062558079E-07  8.439718223661E-08
  6.917565449465E-08  5.660971267579E-08  4.625257960650E-08  3.772965651891E-08
  3.072739341975E-08  2.498378277651E-08  2.028025569409E-08  1.643478711097E-08
  1.329604095266E-08  1.073840788911E-08  8.657807587545E-09  6.968144359787E-09
  5.598320086779E-09  4.489721465777E-09  3.594110153649E-09  2.871854448483E-09
  2.290449920891E-09  1.823284023380E-09  1.448606304624E-09  1.148671556867E-09
  9.090281384198E-10  7.179279376485E-10  5.658380677473E-10  4.450374813243E-10
  3.492843396535E-10  2.735422247258E-10  2.137551968770E-10  1.666633240910E-10
  1.296516824264E-10  1.006269864100E-10  7.791698497910E-11  6.018857968884E-11
  4.638131085137E-11  3.565343412437E-11  2.733829211715E-11  2.090908760647E-11
  1.595049958188E-11  1.213586132524E-11  9.208850207279E-12  6.968829600422E-12
  5.259140811664E-12  3.957772758090E-12  2.969943894012E-12  2.222218561835E-12
  1.657851756101E-12  1.233115003762E-12  9.144039621251E-13  6.759673450170E-13
  4.981282900822E-13  3.658962091004E-13  2.678820811347E-13  1.467524598486E-15
  9.634517082684E-16  6.295137974330E-16  4.093421747814E-16  2.648796305246E-16
  1.705556246528E-16  1.092730884842E-16  6.965688227854E-17  4.417658239274E-17
  2.787217048197E-17  1.749334744484E-17  1.092122264389E-17  6.781696448605E-18
  4.188381657920E-18  2.572566656585E-18  1.571342423673E-18  9.543986782965E-19
  5.763870945022E-19  3.460942395168E-19  2.066046617136E-19  1.226086305880E-19
  7.232798003411E-20  4.240966262848E-20  2.471524539550E-20  1.431445192158E-20
  8.238760606391E-21  4.711874220689E-21  2.677546530410E-21  1.511674834763E-21
  8.478593951807E-22  4.723882120852E-22  2.614262955222E-22  1.436942186516E-22
  7.843925982797E-23  4.252024112369E-23  2.288702499537E-23  1.223142263431E-23
  6.489654944858E-24  0.000000000000E+00  0.000000000000E+00  0.000000000000E+00
  0.000000000000E+00
</data>
</radfunc>
</valence-charge>
<pseudocore-charge matching-radius="0.653024554444"
 number-of-continuous-derivatives="4">
<annotation model-charge-form="Teter function with specified parameters" />
<radfunc>
<data npts="290">
  1.704867802812E+02  1.704716009380E+02  1.704262269136E+02  1.703505345744E+02
  1.702394849741E+02  1.700978192261E+02  1.699173156871E+02  1.697106890088E+02
  1.694784428929E+02  1.692077187698E+02  1.689027103968E+02  1.685713604973E+02
  1.681711463199E+02  1.677534459666E+02  1.673364621603E+02  1.668565128860E+02
  1.663043038089E+02  1.657813295763E+02  1.651939437502E+02  1.645344756732E+02
  1.637944117173E+02  1.631380272444E+02  1.624187639791E+02  1.616309107640E+02
  1.607683032135E+02  1.598243018618E+02  1.587917726169E+02  1.579546999173E+02
  1.570601230094E+02  1.561044571741E+02  1.550839504696E+02  1.539946850924E+02
  1.528325806330E+02  1.515933995697E+02  1.502727553871E+02  1.488661237463E+02
  1.473688571819E+02  1.457762038444E+02  1.446590582043E+02  1.434959253294E+02
  1.422853528810E+02  1.410258873879E+02  1.397160797880E+02  1.383544916068E+02
  1.369397018156E+02  1.354703144123E+02  1.339449667653E+02  1.323623387619E+02
  1.307211628007E+02  1.290202346620E+02  1.272584252909E+02  1.254346935182E+02
  1.235480997418E+02  1.215978205806E+02  1.195831645058E+02  1.175035884410E+02
  1.153587153101E+02  1.131483524968E+02  1.108725111605E+02  1.085314263316E+02
  1.061255776878E+02  1.036557108846E+02  1.011228592837E+02  9.852836589030E+01
  9.587390527455E+01  9.316150521389E+01  9.039356774995E+01  8.898963044512E+01
  8.757288931142E+01  8.614375861008E+01  8.470267950758E+01  8.325012055873E+01
  8.178657815035E+01  8.031257690148E+01  7.882867001559E+01  7.733543958007E+01
  7.583349680840E+01  7.432348221995E+01  7.280606575256E+01  7.128194680229E+01
  6.975185418564E+01  6.821654601845E+01  6.667680950623E+01  6.513346064053E+01
  6.358734379579E+01  6.203933122127E+01  6.049032242286E+01  5.894124342926E+01
  5.739304593770E+01  5.584670633407E+01  5.430322458298E+01  5.276362298320E+01
  5.122894478462E+01  4.970025266307E+01  4.817862704979E+01  4.666516431313E+01
  4.516097479038E+01  4.366718066847E+01  4.218491371314E+01  4.071531284665E+01
  3.925952157553E+01  3.781868527042E+01  3.639394830136E+01  3.498645103294E+01
  3.359732668506E+01  3.222769806610E+01  3.087867418703E+01  2.955134676608E+01
  2.824678663517E+01  2.696604006106E+01  2.571012499529E+01  2.448002726903E+01
  2.327669675033E+01  2.210104348280E+01  2.095393382665E+01  1.983618662413E+01
  1.874856941332E+01  1.769179471539E+01  1.666651642179E+01  1.567332630909E+01
  1.471275071022E+01  1.378524737152E+01  1.289120252592E+01  1.203092821283E+01
  1.120465987528E+01  1.041255426503E+01  9.654687685532E+00  8.931054601914E+00
  8.241566645910E+00  7.586052041960E+00  6.964255478647E+00  6.375838447133E+00
  5.820380065265E+00  5.297378402619E+00  4.806252317870E+00  4.346343815550E+00
  3.916920924532E+00  3.517181095409E+00  3.146255108483E+00  2.803211478202E+00
  2.487061333885E+00  2.196763750269E+00  1.931231495073E+00  1.689337154406E+00
  1.469919590563E+00  1.271790680633E+00  1.093742278625E+00  9.345533384352E-01
  7.929971302661E-01  6.678484790085E-01  5.578909499194E-01  4.619239046413E-01
  3.787693494460E-01  3.072784975967E-01  2.463379690222E-01  1.948755531566E-01
  1.518654648604E-01  1.163330288433E-01  8.735873492307E-02  6.408161476082E-02
  4.570190030446E-02  3.148293494676E-02  2.075232018751E-02  1.290229318514E-02
  7.389343745529E-03  3.733092750136E-03  1.514467461021E-03  3.732222242187E-04
  4.865474895638E-06  1.570652703137E-04  6.256154872034E-04  1.250052982216E-03
  1.909022121416E-03  2.515486874521E-03  3.011891936223E-03  3.365372945150E-03
  3.563111766849E-03  3.607926027893E-03  3.514172768160E-03  3.304034452512E-03
  3.004241985251E-03  2.643274228017E-03  2.249057343196E-03  1.847170645819E-03
  1.459549167717E-03  1.103657458704E-03  7.920949021896E-04  5.325805981043E-04
  3.282561835431E-04  1.782382370958E-04  7.834843125959E-05  2.194948918221E-05
  8.182276116266E-07  5.993310434692E-06  2.854440573133E-05  6.022068374611E-05
  9.394933036032E-05  1.241682012816E-04  1.469900774129E-04  1.602083766043E-04
  1.631648666785E-04  1.565082614997E-04  1.418780860781E-04  1.215505975789E-04
  9.808281209134E-05  7.398702284538E-05  5.146204896248E-05  3.219947117398E-05
  1.727408792534E-05  7.118637961333E-06  1.574360098403E-06  1.989633783834E-09
  1.432952064889E-06  4.738206451041E-06  8.792535493653E-06  1.261490801514E-05
  1.547040670165E-05  1.692544712410E-05  1.685479124338E-05  1.540530822612E-05
  1.292674596637E-05  9.883303021987E-06  6.761141506840E-06  3.986075303008E-06
  1.862746507479E-06  5.421979671004E-07  1.960446435003E-08  0.000000000000E+00
  0.000000000000E+00  0.000000000000E+00  0.000000000000E+00  0.000000000000E+00
  0.000000000000E+00  0.000000000000E+00  0.000000000000E+00  0.000000000000E+00
  0.000000000000E+00  0.000000000000E+00  0.000000000000E+00  0.000000000000E+00
  0.000000000000E+00  0.000000000000E+00  0.000000000000E+00  0.000000000000E+00
  0.000000000000E+00  0.000000000000E+00  0.000000000000E+00  0.000000000000E+00
  0.000000000000E+00  0.000000000000E+00  0.000000000000E+00  0.000000000000E+00
  0.000000000000E+00  0.000000000000E+00  0.000000000000E+00  0.000000000000E+00
  0.000000000000E+00  0.000000000000E+00  0.000000000000E+00  0.000000000000E+00
  0.000000000000E+00  0.000000000000E+00  0.000000000000E+00  0.000000000000E+00
  0.000000000000E+00  0.000000000000E+00  0.000000000000E+00  0.000000000000E+00
  0.000000000000E+00  0.000000000000E+00  0.000000000000E+00  0.000000000000E+00
  0.000000000000E+00  0.000000000000E+00  0.000000000000E+00  0.000000000000E+00
  0.000000000000E+00  0.000000000000E+00  0.000000000000E+00  0.000000000000E+00
  0.000000000000E+00  0.000000000000E+00  0.000000000000E+00  0.000000000000E+00
  0.000000000000E+00  0.000000000000E+00  0.000000000000E+00  0.000000000000E+00
  0.000000000000E+00  0.000000000000E+00
</data>
</radfunc>
</pseudocore-charge>
<semilocal-potentials set="scalar_relativistic">
<slps n="5" l="s" rc="1.55993651554" eref="-2.46279899060">
<radfunc>
<data npts="290">
  8.677200484544E+00  8.662626729147E+00  8.619112640842E+00  8.546688436022E+00
  8.440806247754E+00  8.306371942693E+00  8.136112459246E+00  7.942615304658E+00
  7.726893581825E+00  7.477760992883E+00  7.200037747887E+00  6.901823626878E+00
  6.546392042880E+00  6.180870148657E+00  5.821393729075E+00  5.414180594745E+00
  4.954103100063E+00  4.526487503521E+00  4.055335681310E+00  3.537528703574E+00
  2.970028913021E+00  2.478311090711E+00  1.951588991260E+00  1.388647421648E+00
  7.884508308246E-01  1.501838425911E-01 -5.267067762435E-01 -1.059883787836E+00
 -1.614912815590E+00 -2.191654282597E+00 -2.789841223884E+00 -3.409071573490E+00
 -4.048801609374E+00 -4.708340787744E+00 -5.386848181328E+00 -6.083330707895E+00
 -6.796643295629E+00 -7.525491080801E+00 -8.019314776979E+00 -8.518944221904E+00
 -9.023891441623E+00 -9.533643169344E+00 -1.004766219302E+01 -1.056538883192E+01
 -1.108624252335E+01 -1.160962349807E+01 -1.213491452182E+01 -1.266148267907E+01
 -1.318868117510E+01 -1.371585113383E+01 -1.424232337104E+01 -1.476742012640E+01
 -1.529045674338E+01 -1.581074329268E+01 -1.632758614335E+01 -1.684028949452E+01
 -1.734815688922E+01 -1.785049273869E+01 -1.834660388738E+01 -1.883580124436E+01
 -1.931740149068E+01 -1.979072884310E+01 -2.025511681043E+01 -2.070990982275E+01
 -2.115446455403E+01 -2.158815071135E+01 -2.201035104998E+01 -2.221695450265E+01
 -2.242046041733E+01 -2.262079470903E+01 -2.281788374275E+01 -2.301165422193E+01
 -2.320203306975E+01 -2.338894730738E+01 -2.357232393359E+01 -2.375208981001E+01
 -2.392817155605E+01 -2.410049545659E+01 -2.426898738427E+01 -2.443357273739E+01
 -2.459417639225E+01 -2.475072266811E+01 -2.490313530123E+01 -2.505133742402E+01
 -2.519525154495E+01 -2.533479952538E+01 -2.546990255043E+01 -2.560048109313E+01
 -2.572645487324E+01 -2.584774281543E+01 -2.596426301470E+01 -2.607593272055E+01
 -2.618266835480E+01 -2.628438558062E+01 -2.638099944277E+01 -2.647242459946E+01
 -2.655857566547E+01 -2.663936768342E+01 -2.671471673451E+01 -2.678454069275E+01
 -2.684876011621E+01 -2.690729925761E+01 -2.696008716301E+01 -2.700705881516E+01
 -2.704815626680E+01 -2.708332970149E+01 -2.711253835661E+01 -2.713575124640E+01
 -2.715294763247E+01 -2.716411720489E+01 -2.716925995761E+01 -2.716838576497E+01
 -2.716151368910E+01 -2.714867106791E+01 -2.712989244763E+01 -2.710521843134E+01
 -2.707469451381E+01 -2.703836996507E+01 -2.699629681127E+01 -2.694852894342E+01
 -2.689512136608E+01 -2.683612958012E+01 -2.677160907881E+01 -2.670161492625E+01
 -2.662620138119E+01 -2.654542152906E+01 -2.645932688844E+01 -2.636796696657E+01
 -2.627138874901E+01 -2.616963612215E+01 -2.606274924163E+01 -2.595076387545E+01
 -2.583371076489E+01 -2.571161505998E+01 -2.558449589663E+01 -2.545236618781E+01
 -2.531523270059E+01 -2.517309648117E+01 -2.502595367076E+01 -2.487379672508E+01
 -2.471661601090E+01 -2.455440170673E+01 -2.438714588815E+01 -2.421484463875E+01
 -2.403750000474E+01 -2.385512161692E+01 -2.366772784363E+01 -2.347534641928E+01