<?xml version="1.0" encoding="UTF-8" ?>
<psml version="1.1" energy_unit="hartree" length_unit="bohr"
 uuid="abdce1d0-be45-11e7-5eb8-c121effae0f6"
 xmlns="http://esl.cecam.org/PSML/ns/1.1">
<provenance creator="ONCVPSP-3.3.0+psml-3.3.0-73 (scalar-relativistic)"
 date="2017-10-31">
<annotation action="semilocal-pseudopotential-generation"
 action-cont="projectors-generation" />
<input-file name="oncvpsp-input">
<![CDATA[# atsym z nc nv iexc psfile
Hf 72 10 4 4 upf
# n l f
1 0 2.0
2 0 2.0
2 1 6.0
3 0 2.0
3 1 6.0
3 2 10.0
4 0 2.0
4 1 6.0
4 2 10.0
4 3 14.0
5 0 2.0
5 1 6.0
5 2 2.0
6 0 2.0
# lmax
3
# l rc ep ncon nbas qcut
0 1.7 0.0 4 8 7.0
1 1.7 0.0 4 8 7.4
2 1.7 0.0 4 9 6.6
3 2.4 0.5 4 8 6.8
# lloc lpopt rc5 dvloc0
4 5 1.7 0.0
# l nproj debl
0 2 2.0
1 2 1.5
2 2 1.8
3 2 2.5
# icmod fcfact rcfact
3 5.4 1.36
# epsh1 epsh2 depsh
-12.0 12.0 0.02
# rlmax drl
6.0 0.01
 0
]]>
</input-file>
</provenance>
<pseudo-atom-spec atomic-label="Hf" atomic-number="72" z-pseudo="12"
 flavor="Hamann&apos;s oncvpsp" relativity="scalar" spin-dft="no"
 core-corrections="yes">
<annotation pseudo-energy="-49.8160171837" />
<exchange-correlation>
<annotation oncvpsp-xc-code="4" oncvpsp-xc-type="GGA -- Perdew-Burke-Ernzerhof" />
<libxc-info number-of-functionals="2">
<functional name="Perdew, Burke &amp; Ernzerhof (GGA)" type="exchange" id="101" />
<functional name="Perdew, Burke &amp; Ernzerhof (GGA)" type="correlation"
 id="130" />
</libxc-info>
</exchange-correlation>
<valence-configuration total-valence-charge="12">
<shell n="5" l="s" occupation="2" />
<shell n="5" l="p" occupation="6" />
<shell n="5" l="d" occupation="2" />
<shell n="6" l="s" occupation="2" />
</valence-configuration>
</pseudo-atom-spec>
<grid npts="457">
<annotation type="sampled from oncvpsp log grid"
 recipe="r(i:1..N) = r1*exp(a*(i-1)) + r=0; resampled"
 recipe-cont="r1: scale; a: step" scale="0.694444444444E-05"
 step="0.119285708653E-01" delta="0.500000000000E-02" rmax="44.0200392416" />
<grid-data>
  0.000000000000E+00  5.026670407229E-03  1.004037965951E-02  1.506217053265E-02
  2.029552887432E-02  2.545834165589E-02  3.081188800123E-02  3.598031598865E-02
  4.102519090483E-02  4.622274527913E-02  5.146125203343E-02  5.661407921772E-02
  6.228286019135E-02  6.770677621320E-02  7.273027184416E-02  7.812648509314E-02
  8.392306969631E-02  8.908076201112E-02  9.455543260272E-02  1.003665621267E-01
  1.065348284690E-01  1.117412849051E-01  1.172021857236E-01  1.229299658586E-01
  1.289376679513E-01  1.352389720489E-01  1.418482267551E-01  1.470162864660E-01
  1.523726378587E-01  1.579241411011E-01  1.636779063026E-01  1.696413026204E-01
  1.758219676977E-01  1.822278174452E-01  1.888670561800E-01  1.957481871331E-01
  2.028800233396E-01  2.102716989265E-01  2.153484988254E-01  2.205478729811E-01
  2.258727808263E-01  2.313262532466E-01  2.369113943050E-01  2.426313830091E-01
  2.484894751204E-01  2.544890050078E-01  2.606333875447E-01  2.669261200535E-01
  2.733707842961E-01  2.799710485122E-01  2.867306695074E-01  2.936534947920E-01
  3.007434647703E-01  3.080046149837E-01  3.154410784079E-01  3.230570878049E-01
  3.308569781329E-01  3.388451890129E-01  3.470262672565E-01  3.554048694531E-01
  3.639857646212E-01  3.727738369222E-01  3.817740884408E-01  3.909916420322E-01
  4.004317442374E-01  4.100997682703E-01  4.200012170754E-01  4.250412316803E-01
  4.301417264604E-01  4.353034271780E-01  4.405270683041E-01  4.458133931238E-01
  4.511631538412E-01  4.565771116873E-01  4.620560370276E-01  4.676007094719E-01
  4.732119179856E-01  4.788904610014E-01  4.846371465334E-01  4.904527922918E-01
  4.963382257993E-01  5.022942845089E-01  5.083218159230E-01  5.144216777141E-01
  5.205947378467E-01  5.268418747008E-01  5.331639771972E-01  5.395619449236E-01
  5.460366882627E-01  5.525891285218E-01  5.592201980641E-01  5.659308404409E-01
  5.727220105262E-01  5.795946746525E-01  5.865498107483E-01  5.935884084773E-01
  6.007114693790E-01  6.079200070116E-01  6.152150470957E-01  6.225976276608E-01
  6.300687991928E-01  6.376296247831E-01  6.452811802805E-01  6.530245544439E-01
  6.608608490972E-01  6.687911792863E-01  6.768166734378E-01  6.849384735190E-01
  6.931577352013E-01  7.014756280237E-01  7.098933355600E-01  7.184120555867E-01
  7.270330002537E-01  7.357573962568E-01  7.445864850118E-01  7.535215228320E-01
  7.625637811060E-01  7.717145464792E-01  7.809751210370E-01  7.903468224894E-01
  7.998309843593E-01  8.094289561716E-01  8.191421036457E-01  8.289718088894E-01
  8.389194705961E-01  8.489865042433E-01  8.591743422942E-01  8.694844344017E-01
  8.799182476145E-01  8.904772665859E-01  9.011629937849E-01  9.119769497104E-01
  9.229206731069E-01  9.339957211842E-01  9.452036698384E-01  9.565461138764E-01
  9.680246672429E-01  9.796409632499E-01  9.913966548089E-01  1.003293414667E+00
  1.015332935643E+00  1.027516930870E+00  1.039847134041E+00  1.052325299649E+00
  1.064953203245E+00  1.077732641684E+00  1.090665433384E+00  1.103753418585E+00
  1.116998459608E+00  1.130402441123E+00  1.143967270417E+00  1.157694877662E+00
  1.171587216193E+00  1.185646262788E+00  1.199874017941E+00  1.214272506157E+00
  1.228843776230E+00  1.243589901545E+00  1.258512980364E+00  1.273615136128E+00
  1.288898517762E+00  1.304365299975E+00  1.320017683574E+00  1.335857895777E+00
  1.351888190527E+00  1.368110848813E+00  1.384528178999E+00  1.401142517147E+00
  1.417956227353E+00  1.434971702081E+00  1.452191362506E+00  1.469617658856E+00
  1.487253070762E+00  1.505100107611E+00  1.523161308903E+00  1.541439244609E+00
  1.559936515545E+00  1.578655753731E+00  1.597599622776E+00  1.616770818249E+00
  1.636172068068E+00  1.655806132885E+00  1.675675806480E+00  1.695783916157E+00
  1.716133323151E+00  1.736726923029E+00  1.757567646106E+00  1.778658457859E+00
  1.800002359353E+00  1.821602387665E+00  1.843461616317E+00  1.865583155713E+00
  1.887970153582E+00  1.910625795425E+00  1.933553304970E+00  1.956755944629E+00
  1.980237015965E+00  2.003999860157E+00  2.028047858478E+00  2.052384432780E+00
  2.077013045974E+00  2.101937202525E+00  2.127160448956E+00  2.152686374343E+00
  2.178518610835E+00  2.204660834165E+00  2.231116764175E+00  2.257890165345E+00
  2.284984847329E+00  2.312404665497E+00  2.340153521483E+00  2.368235363741E+00
  2.396654188106E+00  2.425414038363E+00  2.454519006824E+00  2.483973234905E+00
  2.513780913724E+00  2.543946284689E+00  2.574473640105E+00  2.605367323787E+00
  2.636631731672E+00  2.668271312452E+00  2.700290568202E+00  2.732694055020E+00
  2.765486383680E+00  2.798672220284E+00  2.832256286928E+00  2.866243362371E+00
  2.900638282719E+00  2.935445942112E+00  2.970671293417E+00  3.006319348938E+00
  3.042395181126E+00  3.078903923299E+00  3.115850770379E+00  3.153240979623E+00
  3.191079871379E+00  3.229372829835E+00  3.268125303793E+00  3.307342807439E+00
  3.347030921128E+00  3.387195292182E+00  3.427841635688E+00  3.468975735316E+00
  3.510603444140E+00  3.552730685469E+00  3.595363453695E+00  3.638507815139E+00
  3.682169908921E+00  3.726355947828E+00  3.771072219202E+00  3.816325085833E+00
  3.862120986863E+00  3.908466438705E+00  3.955368035969E+00  4.002832452401E+00
  4.050866441830E+00  4.099476839132E+00  4.148670561201E+00  4.198454607936E+00
  4.248836063231E+00  4.299822095990E+00  4.351419961142E+00  4.403637000675E+00
  4.456480644683E+00  4.509958412420E+00  4.564077913369E+00  4.618846848329E+00
  4.674273010509E+00  4.730364286635E+00  4.787128658075E+00  4.844574201972E+00
  4.902709092395E+00  4.961541601504E+00  5.021080100722E+00  5.081333061931E+00
  5.142309058674E+00  5.204016767378E+00  5.266464968587E+00  5.329662548210E+00
  5.393618498788E+00  5.458341920774E+00  5.523842023823E+00  5.590128128109E+00
  5.657209665646E+00  5.725096181634E+00  5.793797335813E+00  5.863322903843E+00
  5.933682778689E+00  6.004886972034E+00  6.076945615698E+00  6.149868963086E+00
  6.223667390643E+00  6.298351399331E+00  6.373931616123E+00  6.450418795517E+00
  6.527823821063E+00  6.606157706915E+00  6.685431599398E+00  6.765656778591E+00
  6.846844659934E+00  6.929006795854E+00  7.012154877404E+00  7.096300735933E+00
  7.181456344764E+00  7.267633820901E+00  7.354845426752E+00  7.443103571873E+00
  7.532420814735E+00  7.622809864512E+00  7.714283582886E+00  7.806854985881E+00
  7.900537245711E+00  7.995343692660E+00  8.091287816972E+00  8.188383270776E+00
  8.286643870025E+00  8.386083596465E+00  8.486716599623E+00  8.588557198818E+00
  8.691619885204E+00  8.795919323827E+00  8.901470355712E+00  9.008287999981E+00
  9.116387455981E+00  9.225784105453E+00  9.336493514718E+00  9.448531436895E+00
  9.561913814137E+00  9.676656779907E+00  9.792776661266E+00  9.910289981201E+00
  1.002921346098E+01  1.014956402251E+01  1.027135879078E+01  1.039461509627E+01
  1.051935047742E+01  1.064558268315E+01  1.077332967535E+01  1.090260963145E+01
  1.103344094703E+01  1.116584223839E+01  1.129983234526E+01  1.143543033340E+01
  1.157265549740E+01  1.171152736337E+01  1.185206569173E+01  1.199429048003E+01
  1.213822196579E+01  1.228388062938E+01  1.243128719693E+01  1.258046264329E+01
  1.273142819501E+01  1.288420533335E+01  1.303881579735E+01  1.319528158692E+01
  1.335362496597E+01  1.351386846556E+01  1.367603488714E+01  1.384014730579E+01
  1.400622907346E+01  1.417430382234E+01  1.434439546821E+01  1.451652821383E+01
  1.469072655239E+01  1.486701527102E+01  1.504541945427E+01  1.522596448773E+01
  1.540867606158E+01  1.559358017432E+01  1.578070313641E+01  1.597007157405E+01
  1.616171243293E+01  1.635565298213E+01  1.655192081792E+01  1.675054386773E+01
  1.695155039414E+01  1.715496899887E+01  1.736082862686E+01  1.756915857038E+01
  1.777998847323E+01  1.799334833491E+01  1.820926851492E+01  1.842777973710E+01
  1.864891309395E+01  1.887270005108E+01  1.909917245169E+01  1.932836252111E+01
  1.956030287136E+01  1.979502650582E+01  2.003256682389E+01  2.027295762577E+01
  2.051623311728E+01  2.076242791469E+01  2.101157704967E+01  2.126371597426E+01
  2.151888056596E+01  2.177710713275E+01  2.203843241834E+01  2.230289360736E+01
  2.257052833065E+01  2.284137467062E+01  2.311547116666E+01  2.339285682066E+01
  2.367357110251E+01  2.395765395574E+01  2.424514580321E+01  2.453608755285E+01
  2.483052060348E+01  2.512848685072E+01  2.543002869293E+01  2.573518903725E+01
  2.604401130570E+01  2.635653944136E+01  2.667281791466E+01  2.699289172964E+01
  2.731680643039E+01  2.764460810756E+01  2.797634340485E+01  2.831205952571E+01
  2.865180424001E+01  2.899562589089E+01  2.934357340158E+01  2.969569628240E+01
  3.005204463779E+01  3.041266917345E+01  3.077762120353E+01  3.114695265797E+01
  3.152071608987E+01  3.189896468294E+01  3.228175225914E+01  3.266913328625E+01
  3.306116288568E+01  3.345789684031E+01  3.385939160240E+01  3.426570430162E+01
  3.467689275324E+01  3.509301546628E+01  3.551413165188E+01  3.594030123170E+01
  3.637158484648E+01  3.680804386464E+01  3.724974039101E+01  3.769673727571E+01
  3.814909812302E+01  3.860688730049E+01  3.907016994810E+01  3.953901198747E+01
  4.001348013132E+01  4.049364189290E+01  4.097956559561E+01  4.147132038276E+01
  4.196897622736E+01  4.247260394208E+01  4.298227518939E+01  4.349806249166E+01
  4.402003924156E+01
</grid-data>
</grid>
<valence-charge total-charge="12" is-unscreening-charge="yes"
 rescaled-to-z-pseudo="no">
<radfunc>
<data npts="457">
  1.303982769276E+00  1.304454865041E+00  1.305866254070E+00  1.308221405825E+00
  1.311678258874E+00  1.316090866829E+00  1.321717596276E+00  1.328164705629E+00
  1.335418913262E+00  1.343885316073E+00  1.353437240323E+00  1.363830145317E+00
  1.376405316680E+00  1.389556006724E+00  1.402710760087E+00  1.417884904026E+00
  1.435387405192E+00  1.452006589511E+00  1.470723003287E+00  1.491799882017E+00
  1.515533047634E+00  1.536654072712E+00  1.559875705790E+00  1.585404862782E+00
  1.613468323023E+00  1.644314494999E+00  1.678215298406E+00  1.705823404592E+00
  1.735452039951E+00  1.767246013513E+00  1.801359906198E+00  1.837958604472E+00
  1.877217835109E+00  1.919324693360E+00  1.964478154719E+00  2.012889557920E+00
  2.064783043679E+00  2.120395930044E+00  2.159660804819E+00  2.200767595752E+00
  2.243796677429E+00  2.288831119786E+00  2.335956661372E+00  2.385261661271E+00
  2.436837026215E+00  2.490776109007E+00  2.547174573913E+00  2.606130224152E+00
  2.667742786060E+00  2.732113643927E+00  2.799345518823E+00  2.869542084078E+00
  2.942807509323E+00  3.019245924261E+00  3.098960792523E+00  3.182054185182E+00
  3.268625942659E+00  3.358772712985E+00  3.452586853606E+00  3.550155183233E+00
  3.651557569669E+00  3.756865339059E+00  3.866139491841E+00  3.979428710635E+00
  4.096767145725E+00  4.218171964552E+00  4.343640652993E+00  4.407892058653E+00
  4.473148058128E+00  4.539401441183E+00  4.606643164992E+00  4.674862238632E+00
  4.744045603401E+00  4.814178009007E+00  4.885241885738E+00  4.957217212726E+00
  5.030081382470E+00  5.103809061812E+00  5.178372049603E+00  5.253739131349E+00
  5.329875931164E+00  5.406744761421E+00  5.484304470538E+00  5.562510289405E+00
  5.641313677028E+00  5.720662166014E+00  5.800499208624E+00  5.880764024172E+00
  5.961391448649E+00  6.042311787516E+00  6.123450672731E+00  6.204728925125E+00
  6.286062423372E+00  6.367361980879E+00  6.448533232020E+00  6.529476529248E+00
  6.610086852704E+00  6.690253734061E+00  6.769861196409E+00  6.848787712126E+00
  6.926906180716E+00  7.004083928722E+00  7.080182733884E+00  7.155058875769E+00
  7.228563215159E+00  7.300541304552E+00  7.370833532102E+00  7.439275301383E+00
  7.505697249321E+00  7.569925504595E+00  7.631781988770E+00  7.691084762293E+00
  7.747648417391E+00  7.801284519719E+00  7.851802100428E+00  7.899008200056E+00
  7.942708465392E+00  7.982707800096E+00  8.018811069500E+00  8.050823859593E+00
  8.078553289687E+00  8.101808877766E+00  8.120403456912E+00  8.134154140594E+00
  8.142883333923E+00  8.146419787255E+00  8.144599687789E+00  8.137267783983E+00
  8.124278536820E+00  8.105497291139E+00  8.080801459353E+00  8.050081709109E+00
  8.013243145567E+00  7.970206478235E+00  7.920909161534E+00  7.865306497599E+00
  7.803372689249E+00  7.735101830533E+00  7.660508821942E+00  7.579630197106E+00
  7.492524847742E+00  7.399274633735E+00  7.299984865500E+00  7.194784646306E+00
  7.083827062937E+00  6.967289214012E+00  6.845372066438E+00  6.718300131875E+00
  6.586320956677E+00  6.449704420581E+00  6.308741841433E+00  6.163744885348E+00
  6.015044284057E+00  5.862988363505E+00  5.707941390290E+00  5.550281744926E+00
  5.390399933405E+00  5.228696450873E+00  5.065579513466E+00  4.901462676462E+00
  4.736762358751E+00  4.571895295293E+00  4.407275940570E+00  4.243313847166E+00
  4.080411044373E+00  3.918959442232E+00  3.759338286634E+00  3.601911691045E+00
  3.447026270110E+00  3.295008899885E+00  3.146164628736E+00  3.000774762049E+00
  2.859095142906E+00  2.721354649716E+00  2.587753930487E+00  2.458464392007E+00
  2.333627460545E+00  2.213354128809E+00  2.097724801789E+00  1.986789451541E+00
  1.880568088150E+00  1.779051550695E+00  1.682202618288E+00  1.589957436953E+00
  1.502227253427E+00  1.418901320168E+00  1.339853502515E+00  1.264950901636E+00
  1.194055135475E+00  1.127023463408E+00  1.063709889134E+00  1.003966172847E+00
  9.476427722108E-01  8.945897105963E-01  8.446573727334E-01  7.976972285906E-01
  7.535624867167E-01  7.121086787045E-01  6.731941768215E-01  6.366806471885E-01
  6.024334411869E-01  5.703219280319E-01  5.402197716676E-01  5.120051553168E-01
  4.855609571583E-01  4.607748807075E-01  4.375395435325E-01  4.157525279601E-01
  3.953163974037E-01  3.761386818743E-01  3.581318361325E-01  3.412131737828E-01
  3.253047804282E-01  3.103334087811E-01  2.962303583917E-01  2.829313423992E-01
  2.703763434697E-01  2.585094608425E-01  2.472787501985E-01  2.366360578763E-01
  2.265368508097E-01  2.169400434383E-01  2.078078227457E-01  1.991054725002E-01
  1.908011977345E-01  1.828659503952E-01  1.752732570750E-01  1.679990496702E-01
  1.610214997302E-01  1.543208571925E-01  1.478792941144E-01  1.416807539248E-01
  1.357108066337E-01  1.299565103462E-01  1.244062793461E-01  1.190497589312E-01
  1.138777071134E-01  1.088818832249E-01  1.040549434158E-01  9.939034297664E-02
  9.488224537267E-02  9.052543784049E-02  8.631525336585E-02  8.224749883528E-02
  7.831838913374E-02  7.452448694482E-02  7.086264799817E-02  6.732997150130E-02
  6.392375548824E-02  6.064145681672E-02  5.748065554639E-02  5.443902343520E-02
  5.151429629646E-02  4.870424996705E-02  4.600667964612E-02  4.341938237354E-02
  4.094014242761E-02  3.856671943196E-02  3.629683897151E-02  3.412818552626E-02
  3.205839754016E-02  3.008506444851E-02  2.820572549225E-02  2.641787015910E-02
  2.471894006707E-02  2.310633215363E-02  2.157740299333E-02  2.012947408710E-02
  1.875983796421E-02  1.746576494019E-02  1.624451037679E-02  1.509332229528E-02
  1.400944920020E-02  1.299014797888E-02  1.203269175134E-02  1.113437755617E-02
  1.029253377015E-02  9.504527172376E-03  8.767769577081E-03  8.079723973371E-03
  7.437910123556E-03  6.839909585101E-03  6.283370133779E-03  5.766009577202E-03
  5.285618958557E-03  4.840065159708E-03  4.427292920995E-03  4.045326301937E-03
  3.692269612626E-03  3.366307850010E-03  3.065706676538E-03  2.788811980782E-03
  2.534049060952E-03  2.299921472571E-03  2.085009581221E-03  1.887968860326E-03
  1.707527972354E-03  1.542486669968E-03  1.391713551137E-03  1.254143700618E-03
  1.128776243957E-03  1.014671851037E-03  9.109501682661E-04  8.167873883794E-04
  7.314132777517E-04  6.541096593878E-04  5.842064803668E-04  5.210802243587E-04
  4.641516596806E-04  4.128831009620E-04  3.667761834318E-04  3.253696919781E-04
  2.882374126679E-04  2.549860612128E-04  2.252532866123E-04  1.987057508507E-04
  1.750372850269E-04  1.539671219089E-04  1.352382046129E-04  1.186155708670E-04
  1.038848121309E-04  9.085060668673E-05  7.933532567800E-05  6.917771094771E-05
  6.023162340918E-05  5.236486056320E-05  4.545804165828E-05  3.940355887192E-05
  3.410459277285E-05  2.947419020784E-05  2.543440264504E-05  2.191548290002E-05
  1.885513807469E-05  1.619783645343E-05  1.389416602899E-05  1.190024227267E-05
  1.017716272136E-05  8.690505928052E-06  7.409872312962E-06  6.308464459054E-06
  5.362704417850E-06  4.551885628307E-06  3.857857101734E-06  3.264737588126E-06
  2.758657512267E-06  2.327526550084E-06  1.960824805253E-06  1.649415641597E-06
  1.385378326663E-06  1.161858744759E-06  9.729365421226E-07  8.135071717928E-07
  6.791774098469E-07  5.661730171177E-07  4.712573204591E-07  3.916595843558E-07
  3.250121366394E-07  2.692953008253E-07  2.227892717709E-07  1.840321507718E-07
  1.517834306935E-07  1.249922912435E-07  1.027701290239E-07  8.436680664804E-08
  6.915016007335E-08  5.658835356767E-08  4.623471757850E-08  3.771474643585E-08
  3.071497052782E-08  2.497345159111E-08  2.027168030930E-08  1.642768276580E-08
  1.329016670588E-08  1.073356026992E-08  8.653815103274E-09  6.964862754521E-09
  5.595628256739E-09  4.487517947647E-09  3.592310111750E-09  2.870387095290E-09
  2.289256313192E-09  1.822315183330E-09  1.447821621205E-09  1.148037428808E-09
  9.085168245985E-10  7.175165853601E-10  5.655078931388E-10  4.447730796918E-10
  3.490731063293E-10  2.733738699244E-10  2.136213401870E-10  1.665571563228E-10
  1.295676842882E-10  1.005606950194E-10  7.786480053860E-11  6.014760580787E-11
  4.634922298263E-11  3.562837143492E-11  2.731876884449E-11  2.089392057414E-11
  1.593874908254E-11  1.212678303261E-11  9.201856163511E-12  6.963456651581E-12
  5.255025139123E-12  3.954629385540E-12  2.967550244340E-12  2.220401301096E-12
  1.656476297820E-12  1.232077160117E-12  9.136233225471E-13  6.753820405557E-13
  4.976908662411E-13  3.655703816804E-13  2.676401972004E-13  1.467250960340E-15
  9.632695115871E-16  6.293930655679E-16  4.092625595079E-16  2.648273862132E-16
  1.705215112886E-16  1.092509255381E-16  6.964255637637E-17  4.416736980072E-17
  2.786627688303E-17  1.748959692687E-17  1.091884861068E-17  6.780201797184E-18
  4.187445772070E-18  2.571983872723E-18  1.570981541587E-18  9.541764663267E-19
  5.762510488436E-19  3.460114286219E-19  2.065545492335E-19  1.225784845907E-19
  7.230995367179E-20  4.239894866440E-20  2.470891654972E-20  1.431073657542E-20
  8.236593190211E-21  4.710617840669E-21  2.676822923945E-21  1.511260784387E-21
  8.476240314877E-22  4.722553114393E-22  2.613517568897E-22  1.436526976910E-22
  7.841629043620E-23  4.250762308850E-23  2.288014231497E-23  1.222769520091E-23
  6.487650880503E-24  0.000000000000E+00  0.000000000000E+00  0.000000000000E+00
  0.000000000000E+00
</data>
</radfunc>
</valence-charge>
<pseudocore-charge matching-radius="1.02751693087"
 number-of-continuous-derivatives="4">
<annotation model-charge-form="Teter function with specified parameters" />
<radfunc>
<data npts="290">
  4.050268207036E+01  4.050102631914E+01  4.049607650975E+01  4.048781781837E+01
  4.047569797832E+01  4.046023090899E+01  4.044051407252E+01  4.041793071444E+01
  4.039253063655E+01  4.036290006575E+01  4.032948832272E+01  4.029315637394E+01
  4.024922530099E+01  4.020331826326E+01  4.015743217488E+01  4.010454540840E+01
  4.004360070386E+01  3.998578789122E+01  3.992074431076E+01  3.984757894274E+01
  3.976529456122E+01  3.969215628641E+01  3.961184017274E+01  3.952365778689E+01
  3.942685802773E+01  3.932062213496E+01  3.920405845672E+01  3.910927768221E+01
  3.900770368702E+01  3.889886860326E+01  3.878227526431E+01  3.865739582909E+01
  3.852367041880E+01  3.838050578298E+01  3.822727401439E+01  3.806331133664E+01
  3.788791699193E+01  3.770035226145E+01  3.756816545220E+01  3.742998477241E+01
  3.728556232032E+01  3.713464233797E+01  3.697696121664E+01  3.681224753595E+01
  3.664022214106E+01  3.646059826246E+01  3.627308168319E+01  3.607737095898E+01
  3.587315769693E+01  3.566012689890E+01  3.543795737615E+01  3.520632224227E+01
  3.496488949176E+01  3.471332267206E+01  3.445128165742E+01  3.417842353314E+01
  3.389440359928E+01  3.359887650309E+01  3.329149750999E+01  3.297192392276E+01
  3.263981665915E+01  3.229484199776E+01  3.193667350237E+01  3.156499413432E+01
  3.117949856238E+01  3.077989567897E+01  3.036591133054E+01  3.015344579157E+01
  2.993729126916E+01  2.971741961399E+01  2.949380433067E+01  2.926642068977E+01
  2.903524584332E+01  2.880025894409E+01  2.856144126837E+01  2.831877634233E+01
  2.807225007190E+01  2.782185087611E+01  2.756756982374E+01  2.730940077330E+01
  2.704734051610E+01  2.678138892238E+01  2.651154909022E+01  2.623782749721E+01
  2.596023415453E+01  2.567878276326E+01  2.539349087270E+01  2.510438004036E+01
  2.481147599336E+01  2.451480879080E+01  2.421441298688E+01  2.391032779421E+01
  2.360259724686E+01  2.329127036288E+01  2.297640130545E+01  2.265804954237E+01
  2.233628000313E+01  2.201116323298E+01  2.168277554330E+01  2.135119915760E+01
  2.101652235222E+01  2.067883959110E+01  2.033825165369E+01  1.999486575504E+01
  1.964879565723E+01  1.930016177100E+01  1.894909124678E+01  1.859571805378E+01
  1.824018304625E+01  1.788263401563E+01  1.752322572746E+01  1.716211994183E+01
  1.679948541615E+01  1.643549788892E+01  1.607034004334E+01  1.570420144931E+01
  1.533727848265E+01  1.496977422023E+01  1.460189830968E+01  1.423386681242E+01
  1.386590201889E+01  1.349823223457E+01  1.313109153586E+01  1.276471949459E+01
  1.239936087028E+01  1.203526526903E+01  1.167268676845E+01  1.131188350783E+01
  1.095311724293E+01  1.059665286509E+01  1.024275788438E+01  9.891701876667E+00
  9.543755894919E+00  9.199191844920E+00  8.858281826188E+00  8.521297438876E+00
  8.188509057863E+00  7.860185075476E+00  7.536591114630E+00  7.217989214469E+00
  6.904636990971E+00  6.596786775319E+00  6.294684733194E+00  5.998569968548E+00
  5.708673615784E+00  5.425217924632E+00  5.148415342432E+00  4.878467598873E+00
  4.615564798608E+00  4.359884527536E+00  4.111590978838E+00  3.870834105181E+00
  3.637748803752E+00  3.412454141023E+00  3.195052624339E+00  2.985629527530E+00
  2.784252277835E+00  2.590969911428E+00  2.405812604752E+00  2.228791288729E+00
  2.059897352671E+00  1.899102444388E+00  1.746358372549E+00  1.601597116827E+00
  1.464730950741E+00  1.335652681312E+00  1.214236008858E+00  1.100336009249E+00
  9.937897398941E-01  8.944169695736E-01  8.020210309746E-01  7.163897934409E-01
  6.372967520570E-01  5.645022277212E-01  4.977546713611E-01  4.367920639372E-01
  3.813434023662E-01  3.311302600197E-01  2.858684090287E-01  2.452694902938E-01
  2.090427158764E-01  1.768965873775E-01  1.485406130164E-01  1.236870054385E-01
  1.020523418367E-01  8.335916779466E-02  6.733752637421E-02  5.372639439685E-02
  4.227500862298E-02  3.274406562616E-02  2.490678059135E-02  1.854979203433E-02
  1.347390152813E-02  9.494639910253E-03  6.442654097763E-03  4.163911514704E-03
  2.519722186087E-03  1.386581713454E-03  6.558415507207E-04  2.332161693025E-04
  3.813975772811E-05  2.987958867828E-06  7.218272271445E-05  2.012005616662E-04
  3.555062608138E-04  5.094353485292E-04  6.450493149515E-04  7.509876347929E-04
  8.213400809858E-04  8.545616020832E-04  8.524501962920E-04  8.192057893446E-04
  7.605851767469E-04  6.831647110464E-04  5.937187107110E-04  4.987176663183E-04
  4.039463633033E-04  3.142381784230E-04  2.333181915336E-04  1.637445325722E-04
  1.069346907815E-04  6.326146426592E-05  3.220191088545E-05  1.252213088818E-05
  2.480983854024E-06  3.689247981634E-08  3.043646337604E-06  9.423482514796E-06
  1.730854367326E-05  2.514492558963E-05  3.175673476095E-05  3.637068405524E-05
  3.860456839244E-05  3.842531021965E-05  3.608400572777E-05  3.203644083800E-05
  2.685783698424E-05  2.116014409041E-05  1.551909320782E-05  1.041657866870E-05
  6.201927764583E-06  3.073433095067E-06  1.079379310207E-06  1.358950612085E-07
  5.747839689180E-08  5.951101328755E-07  1.476556011938E-06  2.443768180893E-06
  3.283164176451E-06  3.845859617140E-06  4.056483667020E-06  3.910811454752E-06
  3.463900165016E-06  2.811534587646E-06  2.068440578304E-06  1.346844518234E-06
  7.385528600600E-07  3.028827787619E-07  6.164051013971E-08  0.000000000000E+00
  0.000000000000E+00  0.000000000000E+00  0.000000000000E+00  0.000000000000E+00
  0.000000000000E+00  0.000000000000E+00  0.000000000000E+00  0.000000000000E+00
  0.000000000000E+00  0.000000000000E+00  0.000000000000E+00  0.000000000000E+00
  0.000000000000E+00  0.000000000000E+00  0.000000000000E+00  0.000000000000E+00
  0.000000000000E+00  0.000000000000E+00  0.000000000000E+00  0.000000000000E+00
  0.000000000000E+00  0.000000000000E+00  0.000000000000E+00  0.000000000000E+00
  0.000000000000E+00  0.000000000000E+00  0.000000000000E+00  0.000000000000E+00
  0.000000000000E+00  0.000000000000E+00
</data>
</radfunc>
</pseudocore-charge>
<semilocal-potentials set="scalar_relativistic">
<slps n="5" l="s" rc="1.71613332315" eref="-2.46279899060">
<radfunc>
<data npts="290">
 -2.925911301395E+00 -2.927195502980E+00 -2.931033437962E+00 -2.937433291737E+00
 -2.946816904587E+00 -2.958777683788E+00 -2.974001503206E+00 -2.991406577177E+00
 -3.010941725659E+00 -3.033676147887E+00 -3.059241712450E+00 -3.086957838925E+00
 -3.120354826202E+00 -3.155118750272E+00 -3.189729461785E+00 -3.229451249582E+00
 -3.275001645031E+00 -3.317991576393E+00 -3.366104527832E+00 -3.419906479944E+00
 -3.480014412081E+00 -3.533089200086E+00 -3.590994632102E+00 -3.654119782374E+00
 -3.722874978686E+00 -3.797690863923E+00 -3.879016906775E+00 -3.944563599826E+00
 -4.014236092569E+00 -4.088239809350E+00 -4.166782651601E+00 -4.250073772821E+00
 -4.338322150877E+00 -4.431734942973E+00 -4.530515609890E+00 -4.634861797967E+00
 -4.744962969848E+00 -4.860997778221E+00 -4.941732899138E+00 -5.025223708305E+00
 -5.111511299824E+00 -5.200632543838E+00 -5.292619604725E+00 -5.387499440796E+00
 -5.485293287160E+00 -5.586016123740E+00 -5.689676130723E+00 -5.796274134053E+00
 -5.905803043903E+00 -6.018247289353E+00 -6.133582252797E+00 -6.251773707882E+00
 -6.372777264998E+00 -6.496537828575E+00 -6.622989070561E+00 -6.752052924602E+00
 -6.883639105466E+00 -7.017644658247E+00 -7.153953541823E+00 -7.292436250860E+00
 -7.432949480449E+00 -7.575335837185E+00 -7.719423600098E+00 -7.865026534465E+00
 -8.011943761034E+00 -8.159959682692E+00 -8.308843970051E+00 -8.383535754528E+00
 -8.458351606894E+00 -8.533258622646E+00 -8.608222995852E+00 -8.683210025743E+00
 -8.758184124211E+00 -8.833108824242E+00 -8.907946789237E+00 -8.982659823242E+00
 -9.057208882057E+00 -9.131554085218E+00 -9.205654728843E+00 -9.279469299323E+00
 -9.352955487862E+00 -9.426070205835E+00 -9.498769600972E+00 -9.571009074361E+00
 -9.642743298252E+00 -9.713926234669E+00 -9.784511154833E+00 -9.854450659392E+00
 -9.923696699471E+00 -9.992200598544E+00 -1.005991307516E+01 -1.012678426654E+01
 -1.019276375301E+01 -1.025780058347E+01 -1.032184330167E+01 -1.038483997360E+01
 -1.044673821590E+01 -1.050748522533E+01 -1.056702780942E+01 -1.062531241837E+01
 -1.068228517822E+01 -1.073789192540E+01 -1.079207824270E+01 -1.084478949683E+01
 -1.089597087761E+01 -1.094556743877E+01 -1.099352414071E+01 -1.103978589503E+01
 -1.108429761113E+01 -1.112700424487E+01 -1.116785084931E+01 -1.120678262780E+01
 -1.124374498922E+01 -1.127868360567E+01 -1.131154447240E+01 -1.134227397017E+01
 -1.137081892995E+01 -1.139712669984E+01 -1.142114521429E+01 -1.144282306534E+01
 -1.146210957577E+01 -1.147895487409E+01 -1.149330997083E+01 -1.150512683611E+01
 -1.151435847802E+01 -1.152095902134E+01 -1.152488378627E+01 -1.152608936658E+01
 -1.152453370665E+01 -1.152017617690E+01 -1.151297764684E+01 -1.150290055529E+01
 -1.148990897706E+01 -1.147396868556E+01 -1.145504721081E+01 -1.143311389229E+01
 -1.140813992650E+01 -1.138009840886E+01 -1.134896437001E+01 -1.131471480685E+01
 -1.127732870870E+01 -1.123678707962E+01 -1.119307295811E+01 -1.114617143603E+01
 -1.109606967897E+01 -1.104275695112E+01 -1.098622464832E+01 -1.092646634359E+01
 -1.086347785069E+01 -1.079725731183E+01 -1.072780531714E+01 -1.065512506432E+01