<?xml version="1.0" encoding="UTF-8" ?>
<psml version="1.1" energy_unit="hartree" length_unit="bohr"
 uuid="812795d0-be6c-11e7-60be-5c47d6fdbea2"
 xmlns="http://esl.cecam.org/PSML/ns/1.1">
<provenance creator="ONCVPSP-3.3.0+psml-3.3.0-73 (scalar-relativistic)"
 date="2017-10-31">
<annotation action="semilocal-pseudopotential-generation"
 action-cont="projectors-generation" />
<input-file name="oncvpsp-input">
<![CDATA[# atsym z nc nv iexc psfile
Cd 48 6 4 4 upf
# n l f
1 0 2.0
2 0 2.0
2 1 6.0
3 0 2.0
3 1 6.0
3 2 10.0
4 0 2.0
4 1 6.0
4 2 10.0
5 0 2.0
# lmax
2
# l rc ep ncon nbas qcut
0 1.2 0.0 4 8 10.2
1 1.2 0.0 4 8 11.2
2 1.25 0.0 4 8 11.2
# lloc lpopt rc5 dvloc0
4 5 1.15 0.0
# l nproj debl
0 2 2.0
1 2 2.0
2 2 2.0
# icmod fcfact rcfact
3 6.0 1.26
# epsh1 epsh2 depsh
-12.0 12.0 0.02
# rlmax drl
6.0 0.01
 0
]]>
</input-file>
</provenance>
<pseudo-atom-spec atomic-label="Cd" atomic-number="48" z-pseudo="20"
 flavor="Hamann&apos;s oncvpsp" relativity="scalar" spin-dft="no"
 core-corrections="yes">
<annotation pseudo-energy="-167.777813630" />
<exchange-correlation>
<annotation oncvpsp-xc-code="4" oncvpsp-xc-type="GGA -- Perdew-Burke-Ernzerhof" />
<libxc-info number-of-functionals="2">
<functional name="Perdew, Burke &amp; Ernzerhof (GGA)" type="exchange" id="101" />
<functional name="Perdew, Burke &amp; Ernzerhof (GGA)" type="correlation"
 id="130" />
</libxc-info>
</exchange-correlation>
<valence-configuration total-valence-charge="20">
<shell n="4" l="s" occupation="2" />
<shell n="4" l="p" occupation="6" />
<shell n="4" l="d" occupation="10" />
<shell n="5" l="s" occupation="2" />
</valence-configuration>
</pseudo-atom-spec>
<grid npts="457">
<annotation type="sampled from oncvpsp log grid"
 recipe="r(i:1..N) = r1*exp(a*(i-1)) + r=0; resampled"
 recipe-cont="r1: scale; a: step" scale="0.104166666667E-04"
 step="0.119285708653E-01" delta="0.500000000000E-02" rmax="44.0153601024" />
<grid-data>
  0.000000000000E+00  5.026136093974E-03  1.003931241072E-02  1.506056948927E-02
  2.029337154766E-02  2.545563554462E-02  3.080861283122E-02  3.597649143716E-02
  4.102083010503E-02  4.621783200185E-02  5.145578192561E-02  5.660806138672E-02
  6.227623979354E-02  6.769957927664E-02  7.272254093181E-02  7.811818058674E-02
  8.391414903812E-02  8.907129311261E-02  9.454538177047E-02  1.003558935966E-01
  1.065235042789E-01  1.117294072913E-01  1.171897276397E-01  1.229168989365E-01
  1.289239624366E-01  1.352245967329E-01  1.418331489041E-01  1.470006592726E-01
  1.523564413084E-01  1.579073544501E-01  1.636605080513E-01  1.696232704860E-01
  1.758032785853E-01  1.822084474188E-01  1.888469804314E-01  1.957273799500E-01
  2.028584580733E-01  2.102493479572E-01  2.153256082143E-01  2.205244296990E-01
  2.258487715297E-01  2.313016642695E-01  2.368862116516E-01  2.426055923457E-01
  2.484630617673E-01  2.544619539307E-01  2.606056833464E-01  2.668977469651E-01
  2.733417261678E-01  2.799412888044E-01  2.867001912813E-01  2.936222806996E-01
  3.007114970448E-01  3.079718754294E-01  3.154075483898E-01  3.230227482381E-01
  3.308218094716E-01  3.388091712395E-01  3.469893798699E-01  3.553670914575E-01
  3.639470745136E-01  3.727342126807E-01  3.817335075116E-01  3.909500813170E-01
  4.003891800803E-01  4.100561764442E-01  4.199565727682E-01  4.249960516415E-01
  4.300960042611E-01  4.352571563123E-01  4.404802421880E-01  4.457660050943E-01
  4.511151971554E-01  4.565285795213E-01  4.620069224755E-01  4.675510055452E-01
  4.731616176118E-01  4.788395570231E-01  4.845856317074E-01  4.904006592879E-01
  4.962854671994E-01  5.022408928057E-01  5.082677835194E-01  5.143669969216E-01
  5.205394008847E-01  5.267858736953E-01  5.331073041797E-01  5.395045918298E-01
  5.459786469318E-01  5.525303906950E-01  5.591607553833E-01  5.658706844479E-01
  5.726611326613E-01  5.795330662532E-01  5.864874630482E-01  5.935253126048E-01
  6.006476163561E-01  6.078553877524E-01  6.151496524054E-01  6.225314482343E-01
  6.300018256131E-01  6.375618475204E-01  6.452125896907E-01  6.529551407670E-01
  6.607906024562E-01  6.687200896856E-01  6.767447307619E-01  6.848656675310E-01
  6.930840555414E-01  7.014010642079E-01  7.098178769784E-01  7.183356915021E-01
  7.269557198001E-01  7.356791884377E-01  7.445073386990E-01  7.534414267634E-01
  7.624827238845E-01  7.716325165711E-01  7.808921067700E-01  7.902628120512E-01
  7.997459657959E-01  8.093429173854E-01  8.190550323940E-01  8.288836927828E-01
  8.388302970962E-01  8.488962606613E-01  8.590830157892E-01  8.693920119787E-01
  8.798247161225E-01  8.903826127159E-01  9.010672040685E-01  9.118800105173E-01
  9.228225706435E-01  9.338964414913E-01  9.451031987892E-01  9.564444371746E-01
  9.679217704207E-01  9.795368316658E-01  9.912912736458E-01  1.003186768930E+00
  1.015225010157E+00  1.027407710279E+00  1.039736602802E+00  1.052213442036E+00
  1.064840003340E+00  1.077618083380E+00  1.090549500381E+00  1.103636094385E+00
  1.116879727518E+00  1.130282284248E+00  1.143845671659E+00  1.157571819719E+00
  1.171462681555E+00  1.185520233734E+00  1.199746476539E+00  1.214143434257E+00
  1.228713155469E+00  1.243457713334E+00  1.258379205894E+00  1.273479756365E+00
  1.288761513441E+00  1.304226651603E+00  1.319877371422E+00  1.335715899879E+00
  1.351744490677E+00  1.367965424566E+00  1.384381009660E+00  1.400993581776E+00
  1.417805504758E+00  1.434819170815E+00  1.452037000864E+00  1.469461444875E+00
  1.487094982213E+00  1.504940122000E+00  1.522999403464E+00  1.541275396305E+00
  1.559770701061E+00  1.578487949474E+00  1.597429804868E+00  1.616598962526E+00
  1.635998150076E+00  1.655630127877E+00  1.675497689412E+00  1.695603661685E+00
  1.715950905625E+00  1.736542316492E+00  1.757380824290E+00  1.778469394182E+00
  1.799811026912E+00  1.821408759235E+00  1.843265664346E+00  1.865384852318E+00
  1.887769470546E+00  1.910422704192E+00  1.933347776642E+00  1.956547949962E+00
  1.980026525362E+00  2.003786843666E+00  2.027832285790E+00  2.052166273220E+00
  2.076792268498E+00  2.101713775720E+00  2.126934341029E+00  2.152457553121E+00
  2.178287043759E+00  2.204426488284E+00  2.230879606143E+00  2.257650161417E+00
  2.284741963354E+00  2.312158866914E+00  2.339904773317E+00  2.367983630597E+00
  2.396399434164E+00  2.425156227374E+00  2.454258102102E+00  2.483709199328E+00
  2.513513709720E+00  2.543675874236E+00  2.574199984727E+00  2.605090384544E+00
  2.636351469158E+00  2.667987686788E+00  2.700003539030E+00  2.732403581498E+00
  2.765192424476E+00  2.798374733570E+00  2.831955230373E+00  2.865938693137E+00
  2.900329957455E+00  2.935133916944E+00  2.970355523947E+00  3.005999790235E+00
  3.042071787718E+00  3.078576649170E+00  3.115519568960E+00  3.152905803788E+00
  3.190740673433E+00  3.229029561514E+00  3.267777916253E+00  3.306991251248E+00
  3.346675146263E+00  3.386835248018E+00  3.427477270994E+00  3.468606998246E+00
  3.510230282225E+00  3.552353045612E+00  3.594981282159E+00  3.638121057545E+00
  3.681778510235E+00  3.725959852358E+00  3.770671370587E+00  3.815919427034E+00
  3.861710460158E+00  3.908050985680E+00  3.954947597508E+00  4.002406968678E+00
  4.050435852302E+00  4.099041082530E+00  4.148229575520E+00  4.198008330426E+00
  4.248384430392E+00  4.299365043556E+00  4.350957424079E+00  4.403168913168E+00
  4.456006940126E+00  4.509479023407E+00  4.563592771688E+00  4.618355884949E+00
  4.673776155568E+00  4.729861469435E+00  4.786619807068E+00  4.844059244753E+00
  4.902187955690E+00  4.961014211158E+00  5.020546381692E+00  5.080792938272E+00
  5.141762453532E+00  5.203463602974E+00  5.265905166210E+00  5.329096028204E+00
  5.393045180543E+00  5.457761722709E+00  5.523254863382E+00  5.589533921742E+00
  5.656608328803E+00  5.724487628749E+00  5.793181480294E+00  5.862699658057E+00
  5.933052053954E+00  6.004248678601E+00  6.076299662745E+00  6.149215258698E+00
  6.223005841802E+00  6.297681911904E+00  6.373254094846E+00  6.449733143985E+00
  6.527129941712E+00  6.605455501013E+00  6.684720967025E+00  6.764937618629E+00
  6.846116870053E+00  6.928270272494E+00  7.011409515764E+00  7.095546429953E+00
  7.180692987112E+00  7.266861302957E+00  7.354063638593E+00  7.442312402256E+00
  7.531620151083E+00  7.621999592896E+00  7.713463588011E+00  7.806025151067E+00
  7.899697452880E+00  7.994493822314E+00  8.090427748182E+00  8.187512881160E+00
  8.285763035734E+00  8.385192192163E+00  8.485814498469E+00  8.587644272451E+00
  8.690696003720E+00  8.794984355765E+00  8.900524168034E+00  9.007330458050E+00
  9.115418423547E+00  9.224803444629E+00  9.335501085965E+00  9.447527098997E+00
  9.560897424185E+00  9.675628193275E+00  9.791735731594E+00  9.909236560373E+00
  1.002814739910E+01  1.014848516789E+01  1.027026698990E+01  1.039351019378E+01
  1.051823231611E+01  1.064445110390E+01  1.077218451715E+01  1.090145073135E+01
  1.103226814013E+01  1.116465535781E+01  1.129863122210E+01  1.143421479677E+01
  1.157142537433E+01  1.171028247882E+01  1.185080586857E+01  1.199301553899E+01
  1.213693172546E+01  1.228257490616E+01  1.242996580504E+01  1.257912539470E+01
  1.273007489943E+01  1.288283579823E+01  1.303742982781E+01  1.319387898574E+01
  1.335220553357E+01  1.351243199997E+01  1.367458118397E+01  1.383867615818E+01
  1.400474027208E+01  1.417279715534E+01  1.434287072121E+01  1.451498516986E+01
  1.468916499190E+01  1.486543497180E+01  1.504382019146E+01  1.522434603376E+01
  1.540703818617E+01  1.559192264440E+01  1.577902571613E+01  1.596837402473E+01
  1.615999451302E+01  1.635391444718E+01  1.655016142055E+01  1.674876335759E+01
  1.694974851788E+01  1.715314550010E+01  1.735898324610E+01  1.756729104505E+01
  1.777809853759E+01  1.799143572004E+01  1.820733294868E+01  1.842582094407E+01
  1.864693079540E+01  1.887069396494E+01  1.909714229252E+01  1.932630800003E+01
  1.955822369603E+01  1.979292238038E+01  2.003043744895E+01  2.027080269834E+01
  2.051405233072E+01  2.076022095868E+01  2.100934361019E+01  2.126145573351E+01
  2.151659320231E+01  2.177479232074E+01  2.203608982859E+01  2.230052290653E+01
  2.256812918141E+01  2.283894673159E+01  2.311301409237E+01  2.339037026148E+01
  2.367105470461E+01  2.395510736107E+01  2.424256864940E+01  2.453347947319E+01
  2.482788122687E+01  2.512581580160E+01  2.542732559121E+01  2.573245349831E+01
  2.604124294029E+01  2.635373785557E+01  2.666998270984E+01  2.699002250236E+01
  2.731390277239E+01  2.764166960565E+01  2.797336964092E+01  2.830905007661E+01
  2.864875867753E+01  2.899254378166E+01  2.934045430704E+01  2.969253975873E+01
  3.004885023583E+01  3.040943643866E+01  3.077434967593E+01  3.114364187204E+01
  3.151736557450E+01  3.189557396140E+01  3.227832084893E+01  3.266566069912E+01
  3.305764862751E+01  3.345434041104E+01  3.385579249597E+01  3.426206200592E+01
  3.467320674999E+01  3.508928523099E+01  3.551035665377E+01  3.593648093361E+01
  3.636771870482E+01  3.680413132927E+01  3.724578090522E+01  3.769273027609E+01
  3.814504303940E+01  3.860278355587E+01  3.906601695854E+01  3.953480916205E+01
  4.000922687199E+01  4.048933759445E+01  4.097520964559E+01  4.146691216133E+01
  4.196451510727E+01  4.246808928856E+01  4.297770636002E+01  4.349343883634E+01
  4.401536010238E+01
</grid-data>
</grid>
<valence-charge total-charge="20" is-unscreening-charge="yes"
 rescaled-to-z-pseudo="no">
<radfunc>
<data npts="457">
  1.479778077320E-01  1.494594336025E-01  1.538942981416E-01  1.613124721773E-01
  1.722410303239E-01  1.862605840241E-01  2.042502156483E-01  2.250173280221E-01
  2.485806981429E-01  2.763432708656E-01  3.080018055000E-01  3.428500324863E-01
  3.855718794042E-01  4.308949353820E-01  4.768865824573E-01  5.307434743496E-01
  5.939235772601E-01  6.549529132512E-01  7.248786264349E-01  8.051177842299E-01
  8.973352104986E-01  9.810382861119E-01  1.074813951686E+00  1.179984256882E+00
  1.298056232631E+00  1.430747363800E+00  1.580013846290E+00  1.704169242637E+00
  1.839943552870E+00  1.988490569579E+00  2.151077233715E+00  2.329092586921E+00
  2.524056739554E+00  2.737629624633E+00  2.971619237139E+00  3.227988973003E+00
  3.508863581202E+00  3.816533124091E+00  4.037738554780E+00  4.272709919312E+00
  4.522247561561E+00  4.787182244837E+00  5.068373304839E+00  5.366706153056E+00
  5.683089034680E+00  6.018448936914E+00  6.373726535594E+00  6.749870060629E+00
  7.147827954212E+00  7.568540190454E+00  8.012928121595E+00  8.481882714768E+00
  8.976251045186E+00  9.496820917256E+00  1.004430349551E+01  1.061931384323E+01
  1.122234928945E+01  1.185376557541E+01  1.251375077156E+01  1.320229700565E+01
  1.391917010419E+01  1.466387732310E+01  1.543563343088E+01  1.623332550846E+01
  1.705547694582E+01  1.790021124442E+01  1.876521637676E+01  1.920447044920E+01
  1.964771060754E+01  2.009451054633E+01  2.054441084162E+01  2.099691818819E+01
  2.145150472858E+01  2.190760748627E+01  2.236462791605E+01  2.282193158477E+01
  2.327884799655E+01  2.373467057638E+01  2.418865682666E+01  2.464002867128E+01
  2.508797300169E+01  2.553164243969E+01  2.597015633105E+01  2.640260198387E+01
  2.682803616504E+01  2.724548686712E+01  2.765395535737E+01  2.805241851903E+01
  2.843983149375E+01  2.881513063240E+01  2.917723675917E+01  2.952505875226E+01
  2.985749744120E+01  3.017344981876E+01  3.047181356195E+01  3.075149185331E+01
  3.101139849037E+01  3.125046326720E+01  3.146763760779E+01  3.166190042721E+01
  3.183226419180E+01  3.197778114524E+01  3.209754966309E+01  3.219072069349E+01
  3.225650423758E+01  3.229417581879E+01  3.230308288585E+01  3.228265109102E+01
  3.223239038102E+01  3.215190083582E+01  3.204087818745E+01  3.189911894996E+01
  3.172652508998E+01  3.152310816802E+01  3.128899288084E+01  3.102441993764E+01
  3.072974820548E+01  3.040545606373E+01  3.005214191259E+01  2.967052378735E+01
  2.926143803799E+01  2.882583704252E+01  2.836478593289E+01  2.787945832341E+01
  2.737113104397E+01  2.684117789323E+01  2.629106244086E+01  2.572232992190E+01
  2.513659828081E+01  2.453554843691E+01  2.392091385713E+01  2.329446953500E+01
  2.265802048750E+01  2.201338989220E+01  2.136240699676E+01  2.070689494022E+01
  2.004865863107E+01  1.938947282969E+01  1.873107058305E+01  1.807513215683E+01
  1.742327460430E+01  1.677704210279E+01  1.613789717676E+01  1.550721291179E+01
  1.488626624701E+01  1.427623241357E+01  1.367818056545E+01  1.309307062605E+01
  1.252175135005E+01  1.196495957629E+01  1.142332062376E+01  1.089734976081E+01
  1.038745465760E+01  9.893938715702E+00  9.417005157691E+00  8.956761752625E+00
  8.513227761996E+00  8.086348176993E+00  7.676012523414E+00  7.282058513215E+00
  6.904276459489E+00  6.542414617520E+00  6.196184021389E+00  5.865262779214E+00
  5.549300284649E+00  5.247921231949E+00  4.960729418507E+00  4.687311338788E+00
  4.427239561913E+00  4.180075889879E+00  3.945374295162E+00  3.722683638292E+00
  3.511550167796E+00  3.311519805297E+00  3.122140222611E+00  2.942962715044E+00
  2.773543878907E+00  2.613447100918E+00  2.462243867975E+00  2.319514906331E+00
  2.184851159561E+00  2.057854614981E+00  1.938138988339E+00  1.825330276646E+00
  1.719067188996E+00  1.619001465084E+00  1.524798090995E+00  1.436135421539E+00
  1.352705218158E+00  1.274212611076E+00  1.200375993985E+00  1.130926859159E+00
  1.065609580483E+00  1.004181151409E+00  9.464108844489E-01  8.920800783097E-01
  8.409816583706E-01  7.929197957215E-01  7.477095095560E-01  7.051762572811E-01
  6.651555162875E-01  6.274923609285E-01  5.920410378735E-01  5.586645426384E-01
  5.272341997564E-01  4.976292487318E-01  4.697364376185E-01  4.434496257910E-01
  4.186693972169E-01  3.953026853085E-01  3.732624102145E-01  3.524671292202E-01
  3.328407007514E-01  3.143119623180E-01  2.968144225961E-01  2.802859677257E-01
  2.646685817912E-01  2.499080813610E-01  2.359538638808E-01  2.227586696498E-01
  2.102783570482E-01  1.984716906423E-01  1.873001417520E-01  1.767277010391E-01
  1.667207026501E-01  1.572476594341E-01  1.482791087468E-01  1.397874683431E-01
  1.317469018680E-01  1.241331934511E-01  1.169236309244E-01  1.100968971864E-01
  1.036329692542E-01  9.751302455266E-02  9.171935401076E-02  8.623528154807E-02
  8.104508955401E-02  7.613394997917E-02  7.148786067651E-02  6.709358664878E-02
  6.293860587582E-02  5.901105941372E-02  5.529970547405E-02  5.179387720865E-02
  4.848344394018E-02  4.535877559409E-02  4.241071009929E-02  3.963052354968E-02
  3.700990289827E-02  3.454092101396E-02  3.221601390325E-02  3.002795992487E-02
  2.796986083201E-02  2.603512448472E-02  2.421744908390E-02  2.251080878542E-02
  2.090944056131E-02  1.940783218192E-02  1.800071120098E-02  1.668303483287E-02
  1.544998061885E-02  1.429693778705E-02  1.321949921841E-02  1.221345393841E-02
  1.127478006233E-02  1.039963812902E-02  9.584364765576E-03  8.825466632482E-03
  8.119614605550E-03  7.463638157348E-03  6.854519906990E-03  6.289390312671E-03
  5.765522486470E-03  5.280327115588E-03  4.831347478297E-03  4.416254546479E-03
  4.032842169769E-03  3.679022338907E-03  3.352820528086E-03  3.052371117790E-03
  2.775912900901E-03  2.521784675823E-03  2.288420930902E-03  2.074347624768E-03
  1.878178067183E-03  1.698608904820E-03  1.534416215999E-03  1.384451717860E-03
  1.247639088858E-03  1.122970408714E-03  1.009502717259E-03  9.063546928569E-04
  8.127034503684E-04  7.277814579751E-04  6.508735715629E-04  5.813141848609E-04
  5.184844930942E-04  4.618098675734E-04  4.107573383993E-04  3.648331822967E-04
  3.235806125156E-04  2.865775677229E-04  2.534345968507E-04  2.237928369591E-04
  1.973220812874E-04  1.737189348068E-04  1.527050547343E-04  1.340254736103E-04
  1.174470026783E-04  1.027567134206E-04  8.976049520608E-05  7.828168707817E-05
  6.815978176499E-05  5.924920002236E-05  5.141813342777E-05  4.454745373220E-05
  3.852968684970E-05  3.326804952480E-05  2.867554667001E-05  2.467412731228E-05
  2.119389703267E-05  1.817238472997E-05  1.555386149079E-05  1.328870930612E-05
  1.133283734139E-05  9.647143444121E-06  8.197018560958E-06  6.951891736319E-06
  5.884813376460E-06  4.972074486745E-06  4.192859625054E-06  3.528931360337E-06
  2.964344081149E-06  2.485185063822E-06  2.079340782474E-06  1.736286522185E-06
  1.446897441223E-06  1.203279316969E-06  9.986173019469E-07  8.270411101611E-07
  6.835051485517E-07  5.636822030344E-07  4.638693823021E-07  3.809051146591E-07
  3.120960829280E-07  2.551530693895E-07  2.081347662977E-07  1.693986874106E-07
  1.375583918968E-07  1.114463037252E-07  9.008147709032E-08  7.264172150944E-08
  5.843955895146E-08  4.690153975831E-08  3.755049430305E-08  2.999034341075E-08
  2.389313270921E-08  1.898799445493E-08  1.505177519061E-08  1.190109904125E-08
  9.385664762180E-09  7.382600030695E-09  5.791719148867E-09  4.531550473225E-09
  3.535670474272E-09  2.751432790492E-09  2.135244508788E-09  1.652435269276E-09
  1.275192618836E-09  9.812682922334E-10  7.529156495724E-10  5.760195176800E-10
  4.393856959377E-10  3.341625549649E-10  2.533715828431E-10  1.915275115998E-10
  1.443318702748E-10  1.084265349475E-10  8.119614722757E-11  6.061020981196E-11
  4.509729273027E-11  3.344514234971E-11  2.472161685267E-11  1.821231128345E-11
  1.337151229454E-11  9.783763180204E-12  7.133845784667E-12  5.183416313420E-12
  3.752883044088E-12  2.707399055618E-12  1.946073873923E-12  1.393694033400E-12
  9.943920659006E-13  7.068230930551E-13  5.005036089792E-13  3.530428223479E-13
  2.480568850322E-13  1.736035878825E-13  1.210121980843E-13  8.401211524295E-14
  5.808660871944E-14  3.999541531061E-14  2.742350601837E-14  1.872373756326E-14
  1.272907571582E-14  8.616157596056E-15  5.806577759332E-15  3.895774745695E-15
  2.602023769384E-15  1.730011850870E-15  1.144942230737E-15  7.542073133282E-16
  4.944771990283E-16  3.226454680428E-16  2.095095077804E-16  1.353803301790E-16
  8.704735004056E-17  5.569008333813E-17  3.544837730596E-17  2.244835797839E-17
  1.414215664684E-17  8.862627993093E-18  5.524563260517E-18  3.425265436290E-18
  2.112142782421E-18  1.295259080724E-18  7.898881105175E-19  4.789839350329E-19
  2.887974050431E-19  1.731222013259E-19  1.031737448142E-19  6.112403445787E-20
  3.599567171147E-20  2.106942486926E-20  1.225709294399E-20  7.086348730339E-21
  4.071225244346E-21  2.324141726407E-21  0.000000000000E+00  0.000000000000E+00
  0.000000000000E+00  0.000000000000E+00  0.000000000000E+00  0.000000000000E+00
  0.000000000000E+00  0.000000000000E+00  0.000000000000E+00  0.000000000000E+00
  0.000000000000E+00  0.000000000000E+00  0.000000000000E+00  0.000000000000E+00
  0.000000000000E+00  0.000000000000E+00  0.000000000000E+00  0.000000000000E+00
  0.000000000000E+00
</data>
</radfunc>
</valence-charge>
<pseudocore-charge matching-radius="0.579533066253"
 number-of-continuous-derivatives="4">
<annotation model-charge-form="Teter function with specified parameters" />
<radfunc>
<data npts="290">
  1.970983849953E+02  1.970688838982E+02  1.969807093414E+02  1.968336510519E+02
  1.966179746027E+02  1.963429668528E+02  1.959927771419E+02  1.955921979633E+02
  1.951423227283E+02  1.946184096117E+02  1.940287892862E+02  1.933890173085E+02
  1.926173518722E+02  1.918132206687E+02  1.910117436399E+02  1.900908203173E+02
  1.890333380744E+02  1.880339080697E+02  1.869137859053E+02  1.856592383420E+02
  1.842551951553E+02  1.830133011536E+02  1.816561090413E+02  1.801739061098E+02
  1.785563692643E+02  1.767925726778E+02  1.748710083531E+02  1.733190681165E+02
  1.716663443883E+02  1.699074308432E+02  1.680368069102E+02  1.660488662613E+02
  1.639379515253E+02  1.616983959897E+02  1.593245730892E+02  1.568109545048E+02
  1.541521777066E+02  1.513431237573E+02  1.493845534790E+02  1.473557413329E+02
  1.452554714005E+02  1.430826433439E+02  1.408362892200E+02  1.385155914244E+02
  1.361199017570E+02  1.336487615872E+02  1.311019230793E+02  1.284793714145E+02
  1.257813479276E+02  1.230083740438E+02  1.201612758747E+02  1.172412092968E+02
  1.142496852978E+02  1.111885953366E+02  1.080602364168E+02  1.048673355258E+02
  1.016130730427E+02  9.830110466298E+01  9.493558133609E+01  9.152116665550E+01
  8.806305108891E+01  8.456696238383E+01  8.103917143776E+01  7.748649288215E+01
  7.391627959909E+01  7.033641037162E+01  6.675526986679E+01  6.496697460131E+01
  6.318172016845E+01  6.140068274852E+01  5.962506311816E+01  5.785608492447E+01
  5.609499279202E+01  5.434305025939E+01  5.260153754308E+01  5.087174912692E+01
  4.915499117624E+01  4.745257877697E+01  4.576583300079E+01  4.409607779865E+01
  4.244463672617E+01  4.081282950588E+01  3.920196843228E+01  3.761335462761E+01
  3.604827415760E+01  3.450799401799E+01  3.299375800444E+01  3.150678248027E+01
  3.004825205814E+01  2.861931521356E+01  2.722107985025E+01  2.585460883899E+01
  2.452091555340E+01  2.322095942820E+01  2.195564156690E+01  2.072580042774E+01
  1.953220761812E+01  1.837556382932E+01  1.725649494435E+01  1.617554835299E+01
  1.513318950863E+01  1.412979876237E+01  1.316566850973E+01  1.224100068532E+01
  1.135590464050E+01  1.051039543778E+01  9.704392594684E+00  8.937719307894E+00
  8.210102186187E+00  7.521171517872E+00  6.870462095177E+00  6.257414614157E+00
  5.681377664345E+00  5.141610317479E+00  4.637285319291E+00  4.167492882466E+00
  3.731245072645E+00  3.327480772664E+00  2.955071203318E+00  2.612825971688E+00
  2.299499610792E+00  2.013798566909E+00  1.754388583650E+00  1.519902424733E+00
  1.308947870661E+00  1.120115918201E+00  9.519891059145E-01  8.031498840972E-01
  6.721889435192E-01  5.577134145115E-01  4.583548462645E-01  3.727768759164E-01
  2.996824981612E-01  2.378208488211E-01  1.859934201584E-01  1.430596316831E-01
  1.079416878481E-01  7.962866326337E-02  5.717976682950E-02  3.972674835033E-02
  2.647542456423E-02  1.670631590577E-02  9.774400405507E-03  5.108006644008E-03
  2.206883246373E-03  6.394976565166E-04  3.963146400639E-05  1.023529586256E-04
  5.794594484878E-04  1.274491802093E-03  2.037431299787E-03  2.759193889164E-03
  3.366039078153E-03  3.814009792790E-03  4.083515489493E-03  4.174163662326E-03
  4.099934754065E-03  3.884782610935E-03  3.558727375496E-03  3.154490560339E-03
  2.704703555825E-03  2.239701647623E-03  1.785896462307E-03  1.364701359492E-03
  9.919673824205E-04  6.778726626712E-04  4.271962710263E-04  2.398989263569E-04
  1.119280836879E-04  3.616391453631E-05  3.425566831015E-06  3.463643802653E-06
  2.587466369816E-05  6.088575842205E-05  9.997228076122E-05  1.362864365320E-04
  1.648905893542E-04  1.828035412669E-04  1.888809665771E-04  1.835614844012E-04
  1.685169941115E-04  1.462494964669E-04  1.196765783403E-04  9.174423058559E-05
  6.509915222859E-05  4.184386900841E-05  2.338774763749E-05  1.039631859626E-05
  2.831251272491E-06  6.480198117483E-08  1.046354444068E-06  4.495319398152E-06
  9.094371678486E-06  1.365965964552E-05  1.726977681971E-05  1.934221395269E-05
  1.965379087652E-05  1.830919571556E-05  1.566826945151E-05  1.224726723317E-05
  8.611478521668E-06  5.276117884096E-06  2.629503565140E-06  8.877670705111E-07
  8.449834811653E-08  0.000000000000E+00  0.000000000000E+00  0.000000000000E+00
  0.000000000000E+00  0.000000000000E+00  0.000000000000E+00  0.000000000000E+00
  0.000000000000E+00  0.000000000000E+00  0.000000000000E+00  0.000000000000E+00
  0.000000000000E+00  0.000000000000E+00  0.000000000000E+00  0.000000000000E+00
  0.000000000000E+00  0.000000000000E+00  0.000000000000E+00  0.000000000000E+00
  0.000000000000E+00  0.000000000000E+00  0.000000000000E+00  0.000000000000E+00
  0.000000000000E+00  0.000000000000E+00  0.000000000000E+00  0.000000000000E+00
  0.000000000000E+00  0.000000000000E+00  0.000000000000E+00  0.000000000000E+00
  0.000000000000E+00  0.000000000000E+00  0.000000000000E+00  0.000000000000E+00
  0.000000000000E+00  0.000000000000E+00  0.000000000000E+00  0.000000000000E+00
  0.000000000000E+00  0.000000000000E+00  0.000000000000E+00  0.000000000000E+00
  0.000000000000E+00  0.000000000000E+00  0.000000000000E+00  0.000000000000E+00
  0.000000000000E+00  0.000000000000E+00  0.000000000000E+00  0.000000000000E+00
  0.000000000000E+00  0.000000000000E+00  0.000000000000E+00  0.000000000000E+00
  0.000000000000E+00  0.000000000000E+00  0.000000000000E+00  0.000000000000E+00
  0.000000000000E+00  0.000000000000E+00  0.000000000000E+00  0.000000000000E+00
  0.000000000000E+00  0.000000000000E+00  0.000000000000E+00  0.000000000000E+00
  0.000000000000E+00  0.000000000000E+00  0.000000000000E+00  0.000000000000E+00
  0.000000000000E+00  0.000000000000E+00  0.000000000000E+00  0.000000000000E+00
  0.000000000000E+00  0.000000000000E+00  0.000000000000E+00  0.000000000000E+00
  0.000000000000E+00  0.000000000000E+00  0.000000000000E+00  0.000000000000E+00
  0.000000000000E+00  0.000000000000E+00
</data>
</radfunc>
</pseudocore-charge>
<semilocal-potentials set="scalar_relativistic">
<slps n="4" l="s" rc="1.21414343426" eref="-3.89241821049">
<radfunc>
<data npts="290">
  9.323851890281E+01  9.310485382939E+01  9.270685514846E+01  9.204807391348E+01
  9.109305712354E+01  8.989417478586E+01  8.839732707330E+01  8.672471708726E+01
  8.489483823109E+01  8.282590470054E+01  8.057373121132E+01  7.821669955944E+01
  7.548703101363E+01  7.276624923637E+01  7.017203220190E+01  6.732647472554E+01
  6.422467531386E+01  6.144385839491E+01  5.848782411595E+01  5.536250803400E+01
  5.207709761666E+01  4.934182678729E+01  4.652005359234E+01  4.362110168869E+01
  4.065554983151E+01  3.763510932587E+01  3.457246385892E+01  3.225585800726E+01
  2.992896904182E+01  2.759781292329E+01  2.526846618309E+01  2.294700558121E+01
  2.063944804390E+01  1.835169221324E+01  1.608946288803E+01  1.385825953771E+01
  1.166330993379E+01  9.509529773835E+00  8.098820079176E+00  6.709709663422E+00
  5.343385152478E+00  4.000954780518E+00  2.683447022065E+00  1.391809872268E+00
  1.269107594789E-01 -1.110462931520E+00 -2.319602752655E+00 -3.499877533381E+00
 -4.650731204247E+00 -5.771680141135E+00 -6.862310070209E+00 -7.922272575183E+00
 -8.951281249209E+00 -9.949107534115E+00 -1.091557628951E+01 -1.185056113381E+01
 -1.275397959859E+01 -1.362578813691E+01 -1.446597702552E+01 -1.527456520051E+01
 -1.605159506597E+01 -1.679712731558E+01 -1.751123580870E+01 -1.819400254476E+01
 -1.884551278339E+01 -1.946585036292E+01 -2.005509327646E+01 -2.033807599150E+01
 -2.061330957333E+01 -2.088080036780E+01 -2.114055366345E+01 -2.139257360442E+01
 -2.163686311336E+01 -2.187342382534E+01 -2.210225603352E+01 -2.232335864760E+01
 -2.253672916584E+01 -2.274236366157E+01 -2.294025678494E+01 -2.313040178071E+01
 -2.331279052250E+01 -2.348741356399E+01 -2.365426020723E+01 -2.381331858792E+01
 -2.396457577728E+01 -2.410801789981E+01 -2.424363026565E+01 -2.437139751633E+01
 -2.449130378168E+01 -2.460333284602E+01 -2.470746832103E+01 -2.480369382253E+01
 -2.489199314877E+01 -2.497235045748E+01 -2.504475043934E+01 -2.510917848627E+01
 -2.516562085322E+01 -2.521406481313E+01 -2.525449880578E+01 -2.528691258191E+01
 -2.531129734535E+01 -2.532764589665E+01 -2.533595278240E+01 -2.533621445515E+01
 -2.532842944902E+01 -2.531259857599E+01 -2.528872514774E+01 -2.525681522693E+01
 -2.521687791118E+01 -2.516892565185E+01 -2.511297460833E+01 -2.504904503762E+01
 -2.497716171748E+01 -2.489735440057E+01 -2.480965829607E+01 -2.471411457469E+01
 -2.461077089271E+01 -2.449968193079E+01 -2.438090994370E+01 -2.425452531797E+01
 -2.412060713576E+01 -2.397924374475E+01 -2.383053333581E+01 -2.367458453240E+01
 -2.351151699803E+01 -2.334146207062E+01 -2.316456343497E+01 -2.298097784719E+01
 -2.279087592683E+01 -2.259444303476E+01 -2.239188025608E+01 -2.218340550893E+01
 -2.196925480059E+01 -2.174968365278E+01 -2.152496871789E+01 -2.129540960713E+01
 -2.106133095028E+01 -2.082308470475E+01 -2.058105272820E+01 -2.033564962523E+01
 -2.008732587219E+01 -1.983657121683E+01 -1.958391833911E+01 -1.932994674634E+01
 -1.907528685967E+01 -1.882062422806E+01 -1.856670378161E+01 -1.831433400640E+01
 -1.806439088858E+01 -1.781782143687E+01 -1.757564654870E+01 -1.733896293917E+01