<?xml version="1.0" encoding="UTF-8" ?>
<psml version="1.1" energy_unit="hartree" length_unit="bohr"
 uuid="23eb8d30-be45-11e7-541c-9f8ee7bfa143"
 xmlns="http://esl.cecam.org/PSML/ns/1.1">
<provenance creator="ONCVPSP-3.3.0+psml-3.3.0-73 (scalar-relativistic)"
 date="2017-10-31">
<annotation action="semilocal-pseudopotential-generation"
 action-cont="projectors-generation" />
<input-file name="oncvpsp-input">
<![CDATA[# atsym z nc nv iexc psfile
Cd 48 6 4 4 upf
# n l f
1 0 2.0
2 0 2.0
2 1 6.0
3 0 2.0
3 1 6.0
3 2 10.0
4 0 2.0
4 1 6.0
4 2 10.0
5 0 2.0
# lmax
2
# l rc ep ncon nbas qcut
0 1.25 0.0 4 8 10.0
1 1.3 0.0 4 8 10.0
2 1.35 0.0 4 8 10.0
# lloc lpopt rc5 dvloc0
4 5 1.25 0.0
# l nproj debl
0 2 2.0
1 2 2.0
2 2 2.0
# icmod fcfact
3 6 1.26
# epsh1 epsh2 depsh
-12.0 12.0 0.02
# rlmax drl
6.0 0.01
 0
]]>
</input-file>
</provenance>
<pseudo-atom-spec atomic-label="Cd" atomic-number="48" z-pseudo="20"
 flavor="Hamann&apos;s oncvpsp" relativity="scalar" spin-dft="no"
 core-corrections="yes">
<annotation pseudo-energy="-167.944828783" />
<exchange-correlation>
<annotation oncvpsp-xc-code="4" oncvpsp-xc-type="GGA -- Perdew-Burke-Ernzerhof" />
<libxc-info number-of-functionals="2">
<functional name="Perdew, Burke &amp; Ernzerhof (GGA)" type="exchange" id="101" />
<functional name="Perdew, Burke &amp; Ernzerhof (GGA)" type="correlation"
 id="130" />
</libxc-info>
</exchange-correlation>
<valence-configuration total-valence-charge="20">
<shell n="4" l="s" occupation="2" />
<shell n="4" l="p" occupation="6" />
<shell n="4" l="d" occupation="10" />
<shell n="5" l="s" occupation="2" />
</valence-configuration>
</pseudo-atom-spec>
<grid npts="457">
<annotation type="sampled from oncvpsp log grid"
 recipe="r(i:1..N) = r1*exp(a*(i-1)) + r=0; resampled"
 recipe-cont="r1: scale; a: step" scale="0.104166666667E-04"
 step="0.119285708653E-01" delta="0.500000000000E-02" rmax="44.0153601024" />
<grid-data>
  0.000000000000E+00  5.026136093974E-03  1.003931241072E-02  1.506056948927E-02
  2.029337154766E-02  2.545563554462E-02  3.080861283122E-02  3.597649143716E-02
  4.102083010503E-02  4.621783200185E-02  5.145578192561E-02  5.660806138672E-02
  6.227623979354E-02  6.769957927664E-02  7.272254093181E-02  7.811818058674E-02
  8.391414903812E-02  8.907129311261E-02  9.454538177047E-02  1.003558935966E-01
  1.065235042789E-01  1.117294072913E-01  1.171897276397E-01  1.229168989365E-01
  1.289239624366E-01  1.352245967329E-01  1.418331489041E-01  1.470006592726E-01
  1.523564413084E-01  1.579073544501E-01  1.636605080513E-01  1.696232704860E-01
  1.758032785853E-01  1.822084474188E-01  1.888469804314E-01  1.957273799500E-01
  2.028584580733E-01  2.102493479572E-01  2.153256082143E-01  2.205244296990E-01
  2.258487715297E-01  2.313016642695E-01  2.368862116516E-01  2.426055923457E-01
  2.484630617673E-01  2.544619539307E-01  2.606056833464E-01  2.668977469651E-01
  2.733417261678E-01  2.799412888044E-01  2.867001912813E-01  2.936222806996E-01
  3.007114970448E-01  3.079718754294E-01  3.154075483898E-01  3.230227482381E-01
  3.308218094716E-01  3.388091712395E-01  3.469893798699E-01  3.553670914575E-01
  3.639470745136E-01  3.727342126807E-01  3.817335075116E-01  3.909500813170E-01
  4.003891800803E-01  4.100561764442E-01  4.199565727682E-01  4.249960516415E-01
  4.300960042611E-01  4.352571563123E-01  4.404802421880E-01  4.457660050943E-01
  4.511151971554E-01  4.565285795213E-01  4.620069224755E-01  4.675510055452E-01
  4.731616176118E-01  4.788395570231E-01  4.845856317074E-01  4.904006592879E-01
  4.962854671994E-01  5.022408928057E-01  5.082677835194E-01  5.143669969216E-01
  5.205394008847E-01  5.267858736953E-01  5.331073041797E-01  5.395045918298E-01
  5.459786469318E-01  5.525303906950E-01  5.591607553833E-01  5.658706844479E-01
  5.726611326613E-01  5.795330662532E-01  5.864874630482E-01  5.935253126048E-01
  6.006476163561E-01  6.078553877524E-01  6.151496524054E-01  6.225314482343E-01
  6.300018256131E-01  6.375618475204E-01  6.452125896907E-01  6.529551407670E-01
  6.607906024562E-01  6.687200896856E-01  6.767447307619E-01  6.848656675310E-01
  6.930840555414E-01  7.014010642079E-01  7.098178769784E-01  7.183356915021E-01
  7.269557198001E-01  7.356791884377E-01  7.445073386990E-01  7.534414267634E-01
  7.624827238845E-01  7.716325165711E-01  7.808921067700E-01  7.902628120512E-01
  7.997459657959E-01  8.093429173854E-01  8.190550323940E-01  8.288836927828E-01
  8.388302970962E-01  8.488962606613E-01  8.590830157892E-01  8.693920119787E-01
  8.798247161225E-01  8.903826127159E-01  9.010672040685E-01  9.118800105173E-01
  9.228225706435E-01  9.338964414913E-01  9.451031987892E-01  9.564444371746E-01
  9.679217704207E-01  9.795368316658E-01  9.912912736458E-01  1.003186768930E+00
  1.015225010157E+00  1.027407710279E+00  1.039736602802E+00  1.052213442036E+00
  1.064840003340E+00  1.077618083380E+00  1.090549500381E+00  1.103636094385E+00
  1.116879727518E+00  1.130282284248E+00  1.143845671659E+00  1.157571819719E+00
  1.171462681555E+00  1.185520233734E+00  1.199746476539E+00  1.214143434257E+00
  1.228713155469E+00  1.243457713334E+00  1.258379205894E+00  1.273479756365E+00
  1.288761513441E+00  1.304226651603E+00  1.319877371422E+00  1.335715899879E+00
  1.351744490677E+00  1.367965424566E+00  1.384381009660E+00  1.400993581776E+00
  1.417805504758E+00  1.434819170815E+00  1.452037000864E+00  1.469461444875E+00
  1.487094982213E+00  1.504940122000E+00  1.522999403464E+00  1.541275396305E+00
  1.559770701061E+00  1.578487949474E+00  1.597429804868E+00  1.616598962526E+00
  1.635998150076E+00  1.655630127877E+00  1.675497689412E+00  1.695603661685E+00
  1.715950905625E+00  1.736542316492E+00  1.757380824290E+00  1.778469394182E+00
  1.799811026912E+00  1.821408759235E+00  1.843265664346E+00  1.865384852318E+00
  1.887769470546E+00  1.910422704192E+00  1.933347776642E+00  1.956547949962E+00
  1.980026525362E+00  2.003786843666E+00  2.027832285790E+00  2.052166273220E+00
  2.076792268498E+00  2.101713775720E+00  2.126934341029E+00  2.152457553121E+00
  2.178287043759E+00  2.204426488284E+00  2.230879606143E+00  2.257650161417E+00
  2.284741963354E+00  2.312158866914E+00  2.339904773317E+00  2.367983630597E+00
  2.396399434164E+00  2.425156227374E+00  2.454258102102E+00  2.483709199328E+00
  2.513513709720E+00  2.543675874236E+00  2.574199984727E+00  2.605090384544E+00
  2.636351469158E+00  2.667987686788E+00  2.700003539030E+00  2.732403581498E+00
  2.765192424476E+00  2.798374733570E+00  2.831955230373E+00  2.865938693137E+00
  2.900329957455E+00  2.935133916944E+00  2.970355523947E+00  3.005999790235E+00
  3.042071787718E+00  3.078576649170E+00  3.115519568960E+00  3.152905803788E+00
  3.190740673433E+00  3.229029561514E+00  3.267777916253E+00  3.306991251248E+00
  3.346675146263E+00  3.386835248018E+00  3.427477270994E+00  3.468606998246E+00
  3.510230282225E+00  3.552353045612E+00  3.594981282159E+00  3.638121057545E+00
  3.681778510235E+00  3.725959852358E+00  3.770671370587E+00  3.815919427034E+00
  3.861710460158E+00  3.908050985680E+00  3.954947597508E+00  4.002406968678E+00
  4.050435852302E+00  4.099041082530E+00  4.148229575520E+00  4.198008330426E+00
  4.248384430392E+00  4.299365043556E+00  4.350957424079E+00  4.403168913168E+00
  4.456006940126E+00  4.509479023407E+00  4.563592771688E+00  4.618355884949E+00
  4.673776155568E+00  4.729861469435E+00  4.786619807068E+00  4.844059244753E+00
  4.902187955690E+00  4.961014211158E+00  5.020546381692E+00  5.080792938272E+00
  5.141762453532E+00  5.203463602974E+00  5.265905166210E+00  5.329096028204E+00
  5.393045180543E+00  5.457761722709E+00  5.523254863382E+00  5.589533921742E+00
  5.656608328803E+00  5.724487628749E+00  5.793181480294E+00  5.862699658057E+00
  5.933052053954E+00  6.004248678601E+00  6.076299662745E+00  6.149215258698E+00
  6.223005841802E+00  6.297681911904E+00  6.373254094846E+00  6.449733143985E+00
  6.527129941712E+00  6.605455501013E+00  6.684720967025E+00  6.764937618629E+00
  6.846116870053E+00  6.928270272494E+00  7.011409515764E+00  7.095546429953E+00
  7.180692987112E+00  7.266861302957E+00  7.354063638593E+00  7.442312402256E+00
  7.531620151083E+00  7.621999592896E+00  7.713463588011E+00  7.806025151067E+00
  7.899697452880E+00  7.994493822314E+00  8.090427748182E+00  8.187512881160E+00
  8.285763035734E+00  8.385192192163E+00  8.485814498469E+00  8.587644272451E+00
  8.690696003720E+00  8.794984355765E+00  8.900524168034E+00  9.007330458050E+00
  9.115418423547E+00  9.224803444629E+00  9.335501085965E+00  9.447527098997E+00
  9.560897424185E+00  9.675628193275E+00  9.791735731594E+00  9.909236560373E+00
  1.002814739910E+01  1.014848516789E+01  1.027026698990E+01  1.039351019378E+01
  1.051823231611E+01  1.064445110390E+01  1.077218451715E+01  1.090145073135E+01
  1.103226814013E+01  1.116465535781E+01  1.129863122210E+01  1.143421479677E+01
  1.157142537433E+01  1.171028247882E+01  1.185080586857E+01  1.199301553899E+01
  1.213693172546E+01  1.228257490616E+01  1.242996580504E+01  1.257912539470E+01
  1.273007489943E+01  1.288283579823E+01  1.303742982781E+01  1.319387898574E+01
  1.335220553357E+01  1.351243199997E+01  1.367458118397E+01  1.383867615818E+01
  1.400474027208E+01  1.417279715534E+01  1.434287072121E+01  1.451498516986E+01
  1.468916499190E+01  1.486543497180E+01  1.504382019146E+01  1.522434603376E+01
  1.540703818617E+01  1.559192264440E+01  1.577902571613E+01  1.596837402473E+01
  1.615999451302E+01  1.635391444718E+01  1.655016142055E+01  1.674876335759E+01
  1.694974851788E+01  1.715314550010E+01  1.735898324610E+01  1.756729104505E+01
  1.777809853759E+01  1.799143572004E+01  1.820733294868E+01  1.842582094407E+01
  1.864693079540E+01  1.887069396494E+01  1.909714229252E+01  1.932630800003E+01
  1.955822369603E+01  1.979292238038E+01  2.003043744895E+01  2.027080269834E+01
  2.051405233072E+01  2.076022095868E+01  2.100934361019E+01  2.126145573351E+01
  2.151659320231E+01  2.177479232074E+01  2.203608982859E+01  2.230052290653E+01
  2.256812918141E+01  2.283894673159E+01  2.311301409237E+01  2.339037026148E+01
  2.367105470461E+01  2.395510736107E+01  2.424256864940E+01  2.453347947319E+01
  2.482788122687E+01  2.512581580160E+01  2.542732559121E+01  2.573245349831E+01
  2.604124294029E+01  2.635373785557E+01  2.666998270984E+01  2.699002250236E+01
  2.731390277239E+01  2.764166960565E+01  2.797336964092E+01  2.830905007661E+01
  2.864875867753E+01  2.899254378166E+01  2.934045430704E+01  2.969253975873E+01
  3.004885023583E+01  3.040943643866E+01  3.077434967593E+01  3.114364187204E+01
  3.151736557450E+01  3.189557396140E+01  3.227832084893E+01  3.266566069912E+01
  3.305764862751E+01  3.345434041104E+01  3.385579249597E+01  3.426206200592E+01
  3.467320674999E+01  3.508928523099E+01  3.551035665377E+01  3.593648093361E+01
  3.636771870482E+01  3.680413132927E+01  3.724578090522E+01  3.769273027609E+01
  3.814504303940E+01  3.860278355587E+01  3.906601695854E+01  3.953480916205E+01
  4.000922687199E+01  4.048933759445E+01  4.097520964559E+01  4.146691216133E+01
  4.196451510727E+01  4.246808928856E+01  4.297770636002E+01  4.349343883634E+01
  4.401536010238E+01
</grid-data>
</grid>
<valence-charge total-charge="20" is-unscreening-charge="yes"
 rescaled-to-z-pseudo="no">
<radfunc>
<data npts="457">
  5.893606249720E-01  5.918288540891E-01  5.992108736518E-01  6.115388044248E-01
  6.296555166721E-01  6.528190320312E-01  6.824173196531E-01  7.164152220721E-01
  7.547761189808E-01  7.996894233789E-01  8.505438554816E-01  9.060937392277E-01
  9.736087997354E-01  1.044562658554E+00  1.115891262199E+00  1.198602524550E+00
  1.294573528275E+00  1.386256386568E+00  1.490146517154E+00  1.607933886349E+00
  1.741554527010E+00  1.861331700409E+00  1.993940174359E+00  2.140812525625E+00
  2.303546890590E+00  2.483925434733E+00  2.683934249499E+00  2.848144298923E+00
  3.025658120843E+00  3.217582290037E+00  3.425112258179E+00  3.649537541496E+00
  3.892246593996E+00  4.154731151232E+00  4.438589773309E+00  4.745530249177E+00
  5.077370446221E+00  5.436037098833E+00  5.691050978137E+00  5.959515227070E+00
  6.242074356748E+00  6.539389025515E+00  6.852133719900E+00  7.180993877838E+00
  7.526662380657E+00  7.889835334775E+00  8.271207058831E+00  8.671464187275E+00
  9.091278797591E+00  9.531300465594E+00  9.992147152072E+00  1.047439482482E+01
  1.097856572345E+01  1.150511518069E+01  1.205441692417E+01  1.262674679717E+01
  1.322226485692E+01  1.384099583483E+01  1.448280797610E+01  1.514739031698E+01
  1.583422850701E+01  1.654257934224E+01  1.727144424387E+01  1.801954199493E+01
  1.878528113608E+01  1.956673251963E+01  2.036160262704E+01  2.076324709984E+01
  2.116720836855E+01  2.157308641940E+01  2.198045420080E+01  2.238885710339E+01
  2.279781251648E+01  2.320680947049E+01  2.361530837492E+01  2.402274086219E+01
  2.442850974737E+01  2.483198911460E+01  2.523252454071E+01  2.562943346683E+01
  2.602200572875E+01  2.640950425650E+01  2.679116595368E+01  2.716620276638E+01
  2.753380295138E+01  2.789313255247E+01  2.824333709317E+01  2.858354349296E+01
  2.891286221344E+01  2.923038963921E+01  2.953521069709E+01  2.982640171573E+01
  3.010303352561E+01  3.036417479804E+01  3.060889561889E+01  3.083627129136E+01
  3.104538635896E+01  3.123533883757E+01  3.140524464290E+01  3.155424219645E+01
  3.168149719047E+01  3.178620748923E+01  3.186760814100E+01  3.192497647205E+01
  3.195763723088E+01  3.196496774807E+01  3.194640307438E+01  3.190144105658E+01
  3.182964730872E+01  3.173066003368E+01  3.160419464814E+01  3.145004816266E+01
  3.126810326701E+01  3.105833207044E+01  3.082079944620E+01  3.055566592983E+01
  3.026319012174E+01  2.994373054610E+01  2.959774691994E+01  2.922580078972E+01
  2.882855549569E+01  2.840677542899E+01  2.796132455138E+01  2.749316415327E+01
  2.700334983248E+01  2.649302768299E+01  2.596342969149E+01  2.541586834759E+01
  2.485173048314E+01  2.427247036567E+01  2.367960208098E+01  2.307469125066E+01
  2.245934614063E+01  2.183520822764E+01  2.120394230113E+01  2.056722618813E+01
  1.992674019837E+01  1.928415639604E+01  1.864112781222E+01  1.799927771891E+01
  1.736018909081E+01  1.672539438432E+01  1.609636576495E+01  1.547450591331E+01
  1.486113953681E+01  1.425750570848E+01  1.366475114533E+01  1.308392452770E+01
  1.251597194631E+01  1.196173354655E+01  1.142194141944E+01  1.089721876627E+01
  1.038808033870E+01  9.894934129705E+00  9.418084262526E+00  8.957734996324E+00
  8.513995739083E+00  8.086886931313E+00  7.676346639781E+00  7.282238048132E+00
  6.904358678036E+00  6.542450381398E+00  6.196207128068E+00  5.865287607773E+00
  5.549330131084E+00  5.247955548210E+00  4.960767826096E+00  4.687353715330E+00
  4.427285517055E+00  4.180125106781E+00  3.945426458005E+00  3.722738441911E+00
  3.511607317524E+00  3.311579017129E+00  3.122201223370E+00  2.943025242527E+00
  2.773607682018E+00  2.613511939774E+00  2.462309513986E+00  2.319581142257E+00
  2.184917779535E+00  2.057921424504E+00  1.938205804246E+00  1.825396927036E+00
  1.719133513135E+00  1.619067313276E+00  1.524863324421E+00  1.436199912071E+00
  1.352768848144E+00  1.274275273096E+00  1.200437590587E+00  1.130987302573E+00
  1.065668792308E+00  1.004239062294E+00  9.464674337440E-01  8.921352137158E-01
  8.410353355705E-01  7.929719780042E-01  7.477601674342E-01  7.052253681034E-01
  6.652030638483E-01  6.275383350774E-01  5.920854341252E-01  5.587073617862E-01
  5.272754474900E-01  4.976689352616E-01  4.697745773072E-01  4.434862367939E-01
  4.187045011329E-01  3.953363068412E-01  3.732945768456E-01  3.524978708958E-01
  3.328700495808E-01  3.143399522866E-01  2.968410892926E-01  2.803113480834E-01
  2.646927138435E-01  2.499310040121E-01  2.359756166907E-01  2.227792926336E-01
  2.102978904899E-01  1.984901749226E-01  1.873176171898E-01  1.767442077465E-01
  1.667362804000E-01  1.572623475413E-01  1.482929459598E-01  1.398004927488E-01
  1.317591508065E-01  1.241447034417E-01  1.169344376010E-01  1.101070352430E-01
  1.036424723984E-01  9.752192546814E-02  9.172768432730E-02  8.624307181870E-02
  8.105236923893E-02  7.614074743571E-02  7.149420315483E-02  6.709950029261E-02
  6.294411572796E-02  5.901618942567E-02  5.530447851948E-02  5.179831510015E-02
  4.848756744909E-02  4.536260447281E-02  4.241426310589E-02  3.963381847442E-02
  3.701295659171E-02  3.454374941641E-02  3.221863207526E-02  3.003038207851E-02
  2.797210036275E-02  2.603719400369E-02  2.421936045028E-02  2.251257313891E-02
  2.091106835436E-02  1.940933321174E-02  1.800209464114E-02  1.668430926427E-02
  1.545115406017E-02  1.429801772444E-02  1.322049263434E-02  1.221436733979E-02
  1.127561950760E-02  1.040040925436E-02  9.585072810135E-03  8.826116462583E-03
  8.120210737879E-03  7.464184781123E-03  6.855020905092E-03  6.289849281752E-03
  5.765942756038E-03  5.280711766098E-03  4.831699358247E-03  4.416576288550E-03
  4.033136206029E-03  3.679290915105E-03  3.353065717072E-03  3.052594832088E-03
  2.776116904477E-03  2.521970595070E-03  2.288590264902E-03  2.074501754836E-03
  1.878318265755E-03  1.698736343712E-03  1.534531974067E-03  1.384556788111E-03
  1.247734385030E-03  1.123056771372E-03  1.009580919430E-03  9.064254452392E-04
  8.127674061459E-04  7.278392172630E-04  6.509256855123E-04  5.813611594478E-04
  5.185267926169E-04  4.618479178815E-04  4.107915298738E-04  3.648638726023E-04
  3.236081291432E-04  2.866022103375E-04  2.534566394624E-04  2.238125299299E-04
  1.973396531878E-04  1.737345941332E-04  1.527189914992E-04  1.340378608149E-04
  1.174579976755E-04  1.027664591790E-04  8.976912148029E-05  7.828931149347E-05
  6.816651082234E-05  5.925513002947E-05  5.142335136138E-05  4.455203803654E-05
  3.853370817531E-05  3.327157141187E-05  2.867862617996E-05  2.467681561103E-05
  2.119623992868E-05  1.817442317031E-05  1.555563201772E-05  1.329024447696E-05
  1.133416611417E-05  9.648291531143E-06  8.198008752617E-06  6.952744197146E-06
  5.885545915349E-06  4.972702803184E-06  4.193397533122E-06  3.529390992078E-06
  2.964736070893E-06  2.485518714908E-06  2.079624217763E-06  1.736526819655E-06
  1.447100755890E-06  1.203450990262E-06  9.987619596379E-07  8.271627498393E-07
  6.836072175989E-07  5.637676679709E-07  4.639407903201E-07  3.809646480976E-07
  3.121456073874E-07  2.551941761280E-07  2.081688095002E-07  1.694268168716E-07
  1.375815816125E-07  1.114653768449E-07  9.009712763629E-08  7.265453323827E-08
  5.845002169007E-08  4.691006351756E-08  3.755742143992E-08  2.999595908164E-08
  2.389767383104E-08  1.899165736689E-08  1.505472218742E-08  1.190346392931E-08
  9.387557571966E-09  7.384111002527E-09  5.792922094951E-09  4.532505605606E-09
  3.536425791212E-09  2.752029303747E-09  2.135714288179E-09  1.652804193988E-09
  1.275481512606E-09  9.814938624478E-10  7.530912618030E-10  5.761558325594E-10
  4.394911912381E-10  3.342439522529E-10  2.534341950676E-10  1.915755253794E-10
  1.443685744251E-10  1.084545048990E-10  8.121739336656E-11  6.062629641607E-11
  4.510943301399E-11  3.345427416741E-11  2.472846279380E-11  1.821742621685E-11
  1.337532085482E-11  9.786589222207E-12  7.135935446353E-12  5.184956010770E-12
  3.754013461779E-12  2.708225985482E-12  1.946676580956E-12  1.394131689669E-12
  9.947086802364E-13  7.070512740611E-13  5.006674266014E-13  3.531599756204E-13
  2.481403378727E-13  1.736627986474E-13  1.210540401166E-13  8.404156331448E-14
  5.810724883464E-14  4.000982177655E-14  2.743351918688E-14  1.873066755471E-14
  1.273385121840E-14  8.619434083512E-15  5.808815854394E-15  3.897296716827E-15
  2.603054082330E-15  1.730706144944E-15  1.145407930197E-15  7.545182214781E-16
  4.946837838463E-16  3.227820773060E-16  2.095994063067E-16  1.354391997122E-16
  8.708570917649E-17  5.571495252216E-17  3.546441872264E-17  2.245865202267E-17
  1.414872814970E-17  8.866801025991E-18  5.527199107569E-18  3.426921367523E-18
  2.113177424406E-18  1.295901968668E-18  7.902853470463E-19  4.792279984963E-19
  2.889465012807E-19  1.732127560665E-19  1.032284220053E-19  6.115685314730E-20
  3.601525228753E-20  2.108103635139E-20  1.226393641108E-20  7.090357018942E-21
  4.073558184005E-21  2.325490928814E-21  0.000000000000E+00  0.000000000000E+00
  0.000000000000E+00  0.000000000000E+00  0.000000000000E+00  0.000000000000E+00
  0.000000000000E+00  0.000000000000E+00  0.000000000000E+00  0.000000000000E+00
  0.000000000000E+00  0.000000000000E+00  0.000000000000E+00  0.000000000000E+00
  0.000000000000E+00  0.000000000000E+00  0.000000000000E+00  0.000000000000E+00
  0.000000000000E+00
</data>
</radfunc>
</valence-charge>
<pseudocore-charge matching-radius="0.579533066253"
 number-of-continuous-derivatives="4">
<annotation model-charge-form="Teter function with specified parameters" />
<radfunc>
<data npts="290">
  1.970983849953E+02  1.970688838982E+02  1.969807093414E+02  1.968336510519E+02
  1.966179746027E+02  1.963429668528E+02  1.959927771419E+02  1.955921979633E+02
  1.951423227283E+02  1.946184096117E+02  1.940287892862E+02  1.933890173085E+02
  1.926173518722E+02  1.918132206687E+02  1.910117436399E+02  1.900908203173E+02
  1.890333380744E+02  1.880339080697E+02  1.869137859053E+02  1.856592383420E+02
  1.842551951553E+02  1.830133011536E+02  1.816561090413E+02  1.801739061098E+02
  1.785563692643E+02  1.767925726778E+02  1.748710083531E+02  1.733190681165E+02
  1.716663443883E+02  1.699074308432E+02  1.680368069102E+02  1.660488662613E+02
  1.639379515253E+02  1.616983959897E+02  1.593245730892E+02  1.568109545048E+02
  1.541521777066E+02  1.513431237573E+02  1.493845534790E+02  1.473557413329E+02
  1.452554714005E+02  1.430826433439E+02  1.408362892200E+02  1.385155914244E+02
  1.361199017570E+02  1.336487615872E+02  1.311019230793E+02  1.284793714145E+02
  1.257813479276E+02  1.230083740438E+02  1.201612758747E+02  1.172412092968E+02
  1.142496852978E+02  1.111885953366E+02  1.080602364168E+02  1.048673355258E+02
  1.016130730427E+02  9.830110466298E+01  9.493558133609E+01  9.152116665550E+01
  8.806305108891E+01  8.456696238383E+01  8.103917143776E+01  7.748649288215E+01
  7.391627959909E+01  7.033641037162E+01  6.675526986679E+01  6.496697460131E+01
  6.318172016845E+01  6.140068274852E+01  5.962506311816E+01  5.785608492447E+01
  5.609499279202E+01  5.434305025939E+01  5.260153754308E+01  5.087174912692E+01
  4.915499117624E+01  4.745257877697E+01  4.576583300079E+01  4.409607779865E+01
  4.244463672617E+01  4.081282950588E+01  3.920196843228E+01  3.761335462761E+01
  3.604827415760E+01  3.450799401799E+01  3.299375800444E+01  3.150678248027E+01
  3.004825205814E+01  2.861931521356E+01  2.722107985025E+01  2.585460883899E+01
  2.452091555340E+01  2.322095942820E+01  2.195564156690E+01  2.072580042774E+01
  1.953220761812E+01  1.837556382932E+01  1.725649494435E+01  1.617554835299E+01
  1.513318950863E+01  1.412979876237E+01  1.316566850973E+01  1.224100068532E+01
  1.135590464050E+01  1.051039543778E+01  9.704392594684E+00  8.937719307894E+00
  8.210102186187E+00  7.521171517872E+00  6.870462095177E+00  6.257414614157E+00
  5.681377664345E+00  5.141610317479E+00  4.637285319291E+00  4.167492882466E+00
  3.731245072645E+00  3.327480772664E+00  2.955071203318E+00  2.612825971688E+00
  2.299499610792E+00  2.013798566909E+00  1.754388583650E+00  1.519902424733E+00
  1.308947870661E+00  1.120115918201E+00  9.519891059145E-01  8.031498840972E-01
  6.721889435192E-01  5.577134145115E-01  4.583548462645E-01  3.727768759164E-01
  2.996824981612E-01  2.378208488211E-01  1.859934201584E-01  1.430596316831E-01
  1.079416878481E-01  7.962866326337E-02  5.717976682950E-02  3.972674835033E-02
  2.647542456423E-02  1.670631590577E-02  9.774400405507E-03  5.108006644008E-03
  2.206883246373E-03  6.394976565166E-04  3.963146400639E-05  1.023529586256E-04
  5.794594484878E-04  1.274491802093E-03  2.037431299787E-03  2.759193889164E-03
  3.366039078153E-03  3.814009792790E-03  4.083515489493E-03  4.174163662326E-03
  4.099934754065E-03  3.884782610935E-03  3.558727375496E-03  3.154490560339E-03
  2.704703555825E-03  2.239701647623E-03  1.785896462307E-03  1.364701359492E-03
  9.919673824205E-04  6.778726626712E-04  4.271962710263E-04  2.398989263569E-04
  1.119280836879E-04  3.616391453631E-05  3.425566831015E-06  3.463643802653E-06
  2.587466369816E-05  6.088575842205E-05  9.997228076122E-05  1.362864365320E-04
  1.648905893542E-04  1.828035412669E-04  1.888809665771E-04  1.835614844012E-04
  1.685169941115E-04  1.462494964669E-04  1.196765783403E-04  9.174423058559E-05
  6.509915222859E-05  4.184386900841E-05  2.338774763749E-05  1.039631859626E-05
  2.831251272491E-06  6.480198117483E-08  1.046354444068E-06  4.495319398152E-06
  9.094371678486E-06  1.365965964552E-05  1.726977681971E-05  1.934221395269E-05
  1.965379087652E-05  1.830919571556E-05  1.566826945151E-05  1.224726723317E-05
  8.611478521668E-06  5.276117884096E-06  2.629503565140E-06  8.877670705111E-07
  8.449834811653E-08  0.000000000000E+00  0.000000000000E+00  0.000000000000E+00
  0.000000000000E+00  0.000000000000E+00  0.000000000000E+00  0.000000000000E+00
  0.000000000000E+00  0.000000000000E+00  0.000000000000E+00  0.000000000000E+00
  0.000000000000E+00  0.000000000000E+00  0.000000000000E+00  0.000000000000E+00
  0.000000000000E+00  0.000000000000E+00  0.000000000000E+00  0.000000000000E+00
  0.000000000000E+00  0.000000000000E+00  0.000000000000E+00  0.000000000000E+00
  0.000000000000E+00  0.000000000000E+00  0.000000000000E+00  0.000000000000E+00
  0.000000000000E+00  0.000000000000E+00  0.000000000000E+00  0.000000000000E+00
  0.000000000000E+00  0.000000000000E+00  0.000000000000E+00  0.000000000000E+00
  0.000000000000E+00  0.000000000000E+00  0.000000000000E+00  0.000000000000E+00
  0.000000000000E+00  0.000000000000E+00  0.000000000000E+00  0.000000000000E+00
  0.000000000000E+00  0.000000000000E+00  0.000000000000E+00  0.000000000000E+00
  0.000000000000E+00  0.000000000000E+00  0.000000000000E+00  0.000000000000E+00
  0.000000000000E+00  0.000000000000E+00  0.000000000000E+00  0.000000000000E+00
  0.000000000000E+00  0.000000000000E+00  0.000000000000E+00  0.000000000000E+00
  0.000000000000E+00  0.000000000000E+00  0.000000000000E+00  0.000000000000E+00
  0.000000000000E+00  0.000000000000E+00  0.000000000000E+00  0.000000000000E+00
  0.000000000000E+00  0.000000000000E+00  0.000000000000E+00  0.000000000000E+00
  0.000000000000E+00  0.000000000000E+00  0.000000000000E+00  0.000000000000E+00
  0.000000000000E+00  0.000000000000E+00  0.000000000000E+00  0.000000000000E+00
  0.000000000000E+00  0.000000000000E+00  0.000000000000E+00  0.000000000000E+00
  0.000000000000E+00  0.000000000000E+00
</data>
</radfunc>
</pseudocore-charge>
<semilocal-potentials set="scalar_relativistic">
<slps n="4" l="s" rc="1.25837920589" eref="-3.89241821049">
<radfunc>
<data npts="290">
  2.802360925827E+01  2.799298220407E+01  2.790158953355E+01  2.774965393002E+01
  2.752792545022E+01  2.724708349843E+01  2.689248445587E+01  2.649095234378E+01
  2.604512757504E+01  2.553263499633E+01  2.496431647086E+01  2.435754750746E+01
  2.363902843127E+01  2.290535843949E+01  2.218896171077E+01  2.138352491044E+01
  2.048123036103E+01  1.964984501450E+01  1.874180241212E+01  1.775338368808E+01
  1.668143260882E+01  1.576207517475E+01  1.478687452640E+01  1.375545489548E+01
  1.266794462514E+01  1.152503421377E+01  1.032802833535E+01  9.395928422029E+00
  8.435570524641E+00  7.448258927118E+00  6.435522871529E+00  5.399115332241E+00
  4.341008502585E+00  3.263385877152E+00  2.168630904950E+00  1.059312290185E+00
 -6.183387552376E-02 -1.191924857475E+00 -1.948807996554E+00 -2.707416520520E+00
 -3.466818450097E+00 -4.226069450133E+00 -4.984216456861E+00 -5.740301313580E+00
 -6.493364373621E+00 -7.242448029278E+00 -7.986600126003E+00 -8.724877222277E+00
 -9.456347657412E+00 -1.018009439194E+01 -1.089521758809E+01 -1.160083690140E+01
 -1.229609345808E+01 -1.298015149720E+01 -1.365219966094E+01 -1.431145192104E+01
 -1.495714813424E+01 -1.558855422464E+01 -1.620496199590E+01 -1.680568858150E+01
 -1.739007554635E+01 -1.795748765888E+01 -1.850731135809E+01 -1.903895294627E+01
 -1.955183654447E+01 -2.004540185483E+01 -2.051910178205E+01 -2.074833426520E+01
 -2.097239997457E+01 -2.119123313978E+01 -2.140476835671E+01 -2.161294051577E+01
 -2.181568473357E+01 -2.201293628879E+01 -2.220463056326E+01 -2.239070298918E+01
 -2.257108900341E+01 -2.274572400997E+01 -2.291454335176E+01 -2.307748229255E+01
 -2.323447601034E+01 -2.338545960311E+01 -2.353036810783E+01 -2.366913653373E+01
 -2.380169991042E+01 -2.392799335141E+01 -2.404795213344E+01 -2.416151179145E+01
 -2.426860822905E+01 -2.436917784385E+01 -2.446315766653E+01 -2.455048551224E+01
 -2.463110014277E+01 -2.470494143712E+01 -2.477195056831E+01 -2.483207018395E+01
 -2.488524458792E+01 -2.493141992110E+01 -2.497054433886E+01 -2.500256818412E+01
 -2.502744415504E+01 -2.504512746752E+01 -2.505557601369E+01 -2.505875051834E+01
 -2.505461469657E+01 -2.504313541660E+01 -2.502428287256E+01 -2.499803077250E+01
 -2.496435654694E+01 -2.492324158335E+01 -2.487467149126E+01 -2.481863640188E+01
 -2.475513130513E+01 -2.468415642568E+01 -2.460571763791E+01 -2.451982691866E+01
 -2.442650283478E+01 -2.432577106143E+01 -2.421766492585E+01 -2.410222597053E+01
 -2.397950452923E+01 -2.384956030896E+01 -2.371246297163E+01 -2.356829270961E+01
 -2.341714081068E+01 -2.325911020943E+01 -2.309431602449E+01 -2.292288608298E+01
 -2.274496143662E+01 -2.256069687651E+01 -2.237026145690E+01 -2.217383904072E+01
 -2.197162888305E+01 -2.176384627092E+01 -2.155072324065E+01 -2.133250939615E+01
 -2.110947285381E+01 -2.088190134144E+01 -2.065010348086E+01 -2.041441028497E+01
 -2.017517690197E+01 -1.993278463983E+01 -1.968764330495E+01 -1.944019388752E+01
 -1.919091162432E+01 -1.894030946488E+01 -1.868894195970E+01 -1.843740957824E+01
 -1.818636344860E+01 -1.793651048986E+01 -1.768861888008E+01 -1.744352376817E+01