<?xml version="1.0" encoding="UTF-8" ?>
<psml version="1.1" energy_unit="hartree" length_unit="bohr"
 uuid="f95fa9b0-be40-11e7-634a-9594ffff953f"
 xmlns="http://esl.cecam.org/PSML/ns/1.1">
<provenance creator="ONCVPSP-3.3.0+psml-3.3.0-73 (scalar-relativistic)"
 date="2017-10-31">
<annotation action="semilocal-pseudopotential-generation"
 action-cont="projectors-generation" />
<input-file name="oncvpsp-input">
<![CDATA[# atsym z nc nv iexc psfile
H 1 0 1 4 upf
# n l f
1 0 1.0
# lmax
1
# l rc ep ncon nbas qcut
0 1.0 0.0 4 7 8.5
1 0.7 0.05 4 7 11.0
# lloc lpopt rc5 dvloc0
4 5 0.7 0.0
# l nproj debl
0 2 1.0
1 1 1.0
# icmod fcfact rcfact
0 0.25 0.0
# epsh1 epsh2 depsh
-12.0 12.0 0.02
# rlmax drl
3.0 0.01
 0
]]>
</input-file>
</provenance>
<pseudo-atom-spec atomic-label="H" atomic-number="1" z-pseudo="1"
 flavor="Hamann&apos;s oncvpsp" relativity="scalar" spin-dft="no"
 core-corrections="no">
<annotation pseudo-energy="-0.458734653766" />
<exchange-correlation>
<annotation oncvpsp-xc-code="4" oncvpsp-xc-type="GGA -- Perdew-Burke-Ernzerhof" />
<libxc-info number-of-functionals="2">
<functional name="Perdew, Burke &amp; Ernzerhof (GGA)" type="exchange" id="101" />
<functional name="Perdew, Burke &amp; Ernzerhof (GGA)" type="correlation"
 id="130" />
</libxc-info>
</exchange-correlation>
<valence-configuration total-valence-charge="1">
<shell n="1" l="s" occupation="1" />
</valence-configuration>
</pseudo-atom-spec>
<grid npts="457">
<annotation type="sampled from oncvpsp log grid"
 recipe="r(i:1..N) = r1*exp(a*(i-1)) + r=0; resampled"
 recipe-cont="r1: scale; a: step" scale="0.500000000000E-03"
 step="0.119285708653E-01" delta="0.500000000000E-02" rmax="44.2954833909" />
<grid-data>
  0.000000000000E+00  5.058123513090E-03  1.010320477012E-02  1.515641821668E-02
  2.018035865727E-02  2.531387423390E-02  3.063704102628E-02  3.577613994437E-02
  4.079238691286E-02  4.596044693552E-02  5.116922694735E-02  5.629281359158E-02
  6.192942616304E-02  6.732256330795E-02  7.318536293912E-02  7.861534161388E-02
  8.444819686430E-02  8.963816212109E-02  9.514708906524E-02  1.009945802476E-01
  1.072014429406E-01  1.124404774478E-01  1.179355484579E-01  1.236991687138E-01
  1.297444624675E-01  1.360851953657E-01  1.427358057947E-01  1.479362033189E-01
  1.533260707120E-01  1.589123110676E-01  1.647020789849E-01  1.707027897317E-01
  1.769221287416E-01  1.833680614574E-01  1.900488435324E-01  1.969730314044E-01
  2.041494932539E-01  2.115874203624E-01  2.166959870397E-01  2.219278949507E-01
  2.272861220464E-01  2.327737181771E-01  2.383938068288E-01  2.441495869009E-01
  2.500443345270E-01  2.560814049398E-01  2.622642343807E-01  2.685963420556E-01
  2.750813321382E-01  2.817228958213E-01  2.885248134180E-01  2.954909565132E-01
  3.026252901672E-01  3.099318751730E-01  3.174148703672E-01  3.250785349974E-01
  3.329272311463E-01  3.409654262151E-01  3.491976954657E-01  3.576287246250E-01
  3.662633125523E-01  3.751063739706E-01  3.841629422638E-01  3.934381723418E-01
  4.029373435748E-01  4.126658627981E-01  4.226292673895E-01  4.277008185981E-01
  4.328332284213E-01  4.380272271624E-01  4.432835538883E-01  4.486029565350E-01
  4.539861920134E-01  4.594340263175E-01  4.649472346334E-01  4.705266014490E-01
  4.761729206663E-01  4.818869957143E-01  4.876696396629E-01  4.935216753389E-01
  4.994439354429E-01  5.054372626683E-01  5.115025098203E-01  5.176405399381E-01
  5.238522264174E-01  5.301384531344E-01  5.365001145720E-01  5.429381159469E-01
  5.494533733382E-01  5.560468138183E-01  5.627193755841E-01  5.694720080911E-01
  5.763056721882E-01  5.832213402545E-01  5.902199963375E-01  5.973026362936E-01
  6.044702679291E-01  6.117239111442E-01  6.190645980780E-01  6.264933732549E-01
  6.340112937340E-01  6.416194292588E-01  6.493188624099E-01  6.571106887588E-01
  6.649960170239E-01  6.729759692282E-01  6.810516808589E-01  6.892243010292E-01
  6.974949926416E-01  7.058649325533E-01  7.143353117439E-01  7.229073354848E-01
  7.315822235107E-01  7.403612101928E-01  7.492455447151E-01  7.582364912517E-01
  7.673353291467E-01  7.765433530965E-01  7.858618733336E-01  7.952922158136E-01
  8.048357224034E-01  8.144937510722E-01  8.242676760851E-01  8.341588881981E-01
  8.441687948565E-01  8.542988203948E-01  8.645504062395E-01  8.749250111144E-01
  8.854241112478E-01  8.960492005827E-01  9.068017909897E-01  9.176834124816E-01
  9.286956134314E-01  9.398399607926E-01  9.511180403221E-01  9.625314568059E-01
  9.740818342876E-01  9.857708162991E-01  9.976000660946E-01  1.009571266888E+00
  1.021686122090E+00  1.033946355556E+00  1.046353711822E+00  1.058909956364E+00
  1.071616875840E+00  1.084476278350E+00  1.097489993691E+00  1.110659873615E+00
  1.123987792098E+00  1.137475645604E+00  1.151125353351E+00  1.164938857591E+00
  1.178918123882E+00  1.193065141369E+00  1.207381923065E+00  1.221870506142E+00
  1.236532952216E+00  1.251371347642E+00  1.266387803814E+00  1.281584457460E+00
  1.296963470949E+00  1.312527032601E+00  1.328277356992E+00  1.344216685276E+00
  1.360347285499E+00  1.376671452925E+00  1.393191510360E+00  1.409909808484E+00
  1.426828726186E+00  1.443950670900E+00  1.461278078951E+00  1.478813415899E+00
  1.496559176889E+00  1.514517887012E+00  1.532692101656E+00  1.551084406876E+00
  1.569697419759E+00  1.588533788796E+00  1.607596194261E+00  1.626887348592E+00
  1.646409996776E+00  1.666166916737E+00  1.686160919738E+00  1.706394850775E+00
  1.726871588984E+00  1.747594048052E+00  1.768565176628E+00  1.789787958748E+00
  1.811265414253E+00  1.833000599224E+00  1.854996606414E+00  1.877256565691E+00
  1.899783644480E+00  1.922581048214E+00  1.945652020792E+00  1.968999845042E+00
  1.992627843182E+00  2.016539377300E+00  2.040737849828E+00  2.065226704026E+00
  2.090009424474E+00  2.115089537568E+00  2.140470612019E+00  2.166156259363E+00
  2.192150134475E+00  2.218455936089E+00  2.245077407322E+00  2.272018336210E+00
  2.299282556244E+00  2.326873946919E+00  2.354796434282E+00  2.383053991494E+00
  2.411650639392E+00  2.440590447064E+00  2.469877532429E+00  2.499516062818E+00
  2.529510255572E+00  2.559864378639E+00  2.590582751183E+00  2.621669744197E+00
  2.653129781127E+00  2.684967338501E+00  2.717186946563E+00  2.749793189921E+00
  2.782790708200E+00  2.816184196699E+00  2.849978407059E+00  2.884178147944E+00
  2.918788285719E+00  2.953813745148E+00  2.989259510090E+00  3.025130624211E+00
  3.061432191701E+00  3.098169378002E+00  3.135347410538E+00  3.172971579464E+00
  3.211047238418E+00  3.249579805279E+00  3.288574762942E+00  3.328037660097E+00
  3.367974112019E+00  3.408389801363E+00  3.449290478979E+00  3.490681964727E+00
  3.532570148304E+00  3.574960990083E+00  3.617860521964E+00  3.661274848228E+00
  3.705210146407E+00  3.749672668164E+00  3.794668740181E+00  3.840204765064E+00
  3.886287222244E+00  3.932922668911E+00  3.980117740938E+00  4.027879153830E+00
  4.076213703676E+00  4.125128268120E+00  4.174629807337E+00  4.224725365025E+00
  4.275422069405E+00  4.326727134238E+00  4.378647859849E+00  4.431191634167E+00
  4.484365933777E+00  4.538178324983E+00  4.592636464882E+00  4.647748102461E+00
  4.703521079691E+00  4.759963332647E+00  4.817082892639E+00  4.874887887350E+00
  4.933386541998E+00  4.992587180502E+00  5.052498226668E+00  5.113128205389E+00
  5.174485743853E+00  5.236579572779E+00  5.299418527653E+00  5.363011549985E+00
  5.427367688584E+00  5.492496100847E+00  5.558406054058E+00  5.625106926706E+00
  5.692608209827E+00  5.760919508345E+00  5.830050542445E+00  5.900011148954E+00
  5.970811282742E+00  6.042461018134E+00  6.114970550352E+00  6.188350196956E+00
  6.262610399320E+00  6.337761724112E+00  6.413814864801E+00  6.490780643179E+00
  6.568670010897E+00  6.647494051028E+00  6.727263979640E+00  6.807991147396E+00
  6.889687041164E+00  6.972363285658E+00  7.056031645086E+00  7.140704024827E+00
  7.226392473125E+00  7.313109182803E+00  7.400866492996E+00  7.489676890912E+00
  7.579553013603E+00  7.670507649766E+00  7.762553741564E+00  7.855704386462E+00
  7.949972839100E+00  8.045372513169E+00  8.141916983327E+00  8.239619987127E+00
  8.338495426973E+00  8.438557372096E+00  8.539820060561E+00  8.642297901288E+00
  8.746005476104E+00  8.850957541817E+00  8.957169032319E+00  9.064655060706E+00
  9.173430921435E+00  9.283512092492E+00  9.394914237602E+00  9.507653208453E+00
  9.621745046955E+00  9.737205987518E+00  9.854052459368E+00  9.972301088881E+00
  1.009196870195E+01  1.021307232637E+01  1.033562919429E+01  1.045965674462E+01
  1.058517262555E+01  1.071219469706E+01  1.084074103343E+01  1.097082992583E+01
  1.110247988494E+01  1.123570964356E+01  1.137053815928E+01  1.150698461719E+01
  1.164506843260E+01  1.178480925379E+01  1.192622696483E+01  1.206934168841E+01
  1.221417378867E+01  1.236074387414E+01  1.250907280063E+01  1.265918167423E+01
  1.281109185432E+01  1.296482495658E+01  1.312040285605E+01  1.327784769033E+01
  1.343718186261E+01  1.359842804496E+01  1.376160918150E+01  1.392674849168E+01
  1.409386947358E+01  1.426299590726E+01  1.443415185815E+01  1.460736168045E+01
  1.478265002061E+01  1.496004182086E+01  1.513956232271E+01  1.532123707058E+01
  1.550509191543E+01  1.569115301842E+01  1.587944685464E+01  1.607000021689E+01
  1.626284021949E+01  1.645799430213E+01  1.665549023375E+01  1.685535611656E+01
  1.705762038996E+01  1.726231183464E+01  1.746945957665E+01  1.767909309157E+01
  1.789124220867E+01  1.810593711518E+01  1.832320836056E+01  1.854308686088E+01
  1.876560390322E+01  1.899079115005E+01  1.921868064385E+01  1.944930481158E+01
  1.968269646932E+01  1.991888882695E+01  2.015791549288E+01  2.039981047879E+01
  2.064460820454E+01  2.089234350299E+01  2.114305162503E+01  2.139676824453E+01
  2.165352946346E+01  2.191337181702E+01  2.217633227883E+01  2.244244826617E+01
  2.271175764537E+01  2.298429873711E+01  2.326011032196E+01  2.353923164582E+01
  2.382170242557E+01  2.410756285468E+01  2.439685360893E+01  2.468961585224E+01
  2.498589124247E+01  2.528572193738E+01  2.558915060062E+01  2.589622040783E+01
  2.620697505273E+01  2.652145875336E+01  2.683971625840E+01  2.716179285350E+01
  2.748773436774E+01  2.781758718015E+01  2.815139822632E+01  2.848921500503E+01
  2.883108558509E+01  2.917705861211E+01  2.952718331546E+01  2.988150951524E+01
  3.024008762943E+01  3.060296868098E+01  3.097020430515E+01  3.134184675681E+01
  3.171794891790E+01  3.209856430491E+01  3.248374707657E+01  3.287355204149E+01
  3.326803466599E+01  3.366725108198E+01  3.407125809496E+01  3.448011319210E+01
  3.489387455041E+01  3.531260104501E+01  3.573635225755E+01  3.616518848464E+01
  3.659917074646E+01  3.703836079541E+01  3.748282112496E+01  3.793261497846E+01
  3.838780635820E+01  3.884846003450E+01  3.931464155491E+01  3.978641725357E+01
  4.026385426062E+01  4.074702051174E+01  4.123598475788E+01  4.173081657498E+01
  4.223158637388E+01  4.273836541036E+01  4.325122579529E+01  4.377024050483E+01
  4.429548339089E+01
</grid-data>
</grid>
<valence-charge total-charge="1" is-unscreening-charge="yes"
 rescaled-to-z-pseudo="no">
<radfunc>
<data npts="457">
  2.412019630324E+00  2.411853005229E+00  2.411353884902E+00  2.410521218807E+00
  2.409363894978E+00  2.407842834133E+00  2.405905422383E+00  2.403688517939E+00
  2.401197883302E+00  2.398296126938E+00  2.395028848964E+00  2.391481733965E+00
  2.387200650115E+00  2.382736259077E+00  2.377478705569E+00  2.372237613382E+00
  2.366214253866E+00  2.360516451327E+00  2.354124554554E+00  2.346957842354E+00
  2.338927199918E+00  2.331815035439E+00  2.324032705198E+00  2.315521460881E+00
  2.306218280979E+00  2.296055736137E+00  2.284961889330E+00  2.275984489835E+00
  2.266406336050E+00  2.256192037573E+00  2.245304801293E+00  2.233706475646E+00
  2.221357613080E+00  2.208217552989E+00  2.194244527431E+00  2.179395792050E+00
  2.163627784629E+00  2.146896313761E+00  2.135184727301E+00  2.123011852400E+00
  2.110364432438E+00  2.097229259092E+00  2.083593217066E+00  2.069443332477E+00
  2.054766825032E+00  2.039551164113E+00  2.023784128888E+00  2.007453872564E+00
  1.990548990911E+00  1.973058595172E+00  1.954972389496E+00  1.936280753036E+00
  1.916974826862E+00  1.897046605855E+00  1.876489035769E+00  1.855296115649E+00
  1.833463005815E+00  1.810986141636E+00  1.787863353277E+00  1.764093991637E+00
  1.739679060591E+00  1.714621355629E+00  1.688925608815E+00  1.662598639868E+00
  1.635649512876E+00  1.608089697874E+00  1.579933236083E+00  1.565636394717E+00
  1.551196907075E+00  1.536617325833E+00  1.521900395485E+00  1.507049057303E+00
  1.492066454130E+00  1.476955934990E+00  1.461721059449E+00  1.446365601679E+00
  1.430893554185E+00  1.415309131106E+00  1.399616771053E+00  1.383821139398E+00
  1.367927129938E+00  1.351939865859E+00  1.335864699922E+00  1.319707213765E+00
  1.303473216248E+00  1.287168740742E+00  1.270800041257E+00  1.254373587333E+00
  1.237896057573E+00  1.221374331751E+00  1.204815481387E+00  1.188226758706E+00
  1.171615583909E+00  1.154989530693E+00  1.138356309938E+00  1.121723751551E+00
  1.105099784408E+00  1.088492414416E+00  1.071909700684E+00  1.055359729848E+00
  1.038850588633E+00  1.022390334716E+00  1.005986966044E+00  9.896483887582E-01
  9.733823839245E-01  9.571965733077E-01  9.410983844725E-01  9.250950155238E-01
  9.091933998499E-01  8.934001712670E-01  8.777216300041E-01  8.621637100037E-01
  8.467319480448E-01  8.314314552235E-01  8.162668913473E-01  8.012424428199E-01
  7.863618045936E-01  7.716281667671E-01  7.570442063890E-01  7.426120849977E-01
  7.283334523842E-01  7.142094570043E-01  7.002407633857E-01  6.864275767788E-01
  6.727696751814E-01  6.592664487279E-01  6.459169462772E-01  6.327199288513E-01
  6.196739293858E-01  6.067773180382E-01  5.940283720803E-01  5.814253491724E-01
  5.689665625877E-01  5.566504567351E-01  5.444756811238E-01  5.324411607344E-01
  5.205461606186E-01  5.087903424554E-01  4.971738107570E-01  4.856971464501E-01
  4.743613855180E-01  4.631678174116E-01  4.521176883544E-01  4.412121506946E-01
  4.304523121819E-01  4.198392116152E-01  4.093738216642E-01  3.990570476551E-01
  3.888897267827E-01  3.788726273950E-01  3.690064483399E-01  3.592918183769E-01
  3.497292956556E-01  3.403193672611E-01  3.310624488286E-01  3.219588842273E-01
  3.130089453154E-01  3.042128317657E-01  2.955706709648E-01  2.870825179833E-01
  2.787483556209E-01  2.705680945236E-01  2.625415733763E-01  2.546685591684E-01
  2.469487475336E-01  2.393817631642E-01  2.319671602984E-01  2.247044232821E-01
  2.175929672028E-01  2.106321385965E-01  2.038212162265E-01  1.971594119332E-01
  1.906458715543E-01  1.842796759142E-01  1.780598418816E-01  1.719853234950E-01
  1.660550131530E-01  1.602677428698E-01  1.546222855942E-01  1.491173565893E-01
  1.437516148736E-01  1.385236647196E-01  1.334320572094E-01  1.284752918458E-01
  1.236518182157E-01  1.189600377057E-01  1.143983052659E-01  1.099649312218E-01
  1.056581831306E-01  1.014762876808E-01  9.741743263208E-02  9.347976879390E-02
  8.966141203943E-02  8.596044535329E-02  8.237492090991E-02  7.890286218010E-02
  7.554226606297E-02  7.229110504039E-02  6.914732935106E-02  6.610886918102E-02
  6.317363686659E-02  6.033952911113E-02  5.760442920243E-02  5.496620923738E-02
  5.242273234479E-02  4.997185490400E-02  4.761142875521E-02  4.533930339758E-02
  4.315332817099E-02  4.105135441745E-02  3.903123761774E-02  3.709083949913E-02
  3.522803010985E-02  3.344068985597E-02  3.172671149641E-02  3.008400209172E-02
  2.851048490262E-02  2.700410123392E-02  2.556281222006E-02  2.418460054822E-02
  2.286747211548E-02  2.160945761638E-02  2.040861405785E-02  1.926302619821E-02
  1.817080790786E-02  1.713010344891E-02  1.613908867191E-02  1.519597212771E-02
  1.429899609312E-02  1.344643750931E-02  1.263660883213E-02  1.186785879419E-02
  1.113857307856E-02  1.044717490452E-02  9.792125526249E-03  9.171924645302E-03
  8.585110738562E-03  8.030261303249E-03  7.505993021126E-03  7.010961844229E-03
  6.543863004720E-03  6.103430951708E-03  5.688439218088E-03  5.297700220629E-03
  4.930064996715E-03  4.584422881232E-03  4.259701127250E-03  3.954864474150E-03
  3.668914666957E-03  3.400889930590E-03  3.149864402775E-03  2.914947529305E-03
  2.695283425261E-03  2.490050205752E-03  2.298459289598E-03  2.119754679272E-03
  1.953212220288E-03  1.798138843051E-03  1.653871790052E-03  1.519777831104E-03
  1.395252469163E-03  1.279719139097E-03  1.172628401597E-03  1.073457134274E-03
  9.817077217942E-04  8.969072467913E-04  8.186066831149E-04  7.463800928651E-04
  6.798238285267E-04  6.185557414097E-04  5.622143974997E-04  5.104583017327E-04
  4.629651316296E-04  4.194309811546E-04  3.795696156042E-04  3.431117382743E-04
  3.098042696150E-04  2.794096395326E-04  2.517050934684E-04  2.264820128445E-04
  2.035452504382E-04  1.827124812120E-04  1.638135690947E-04  1.466899501785E-04
  1.311940327575E-04  1.171886146009E-04  1.045463178134E-04  9.314904159121E-05
  8.288743314362E-05  7.366037699677E-05  6.537450285345E-05  5.794371212890E-05
  5.128872323184E-05  4.533663560749E-05  4.002051250571E-05  3.527898238457E-05
  3.105585880761E-05  2.729977864122E-05  2.396385830976E-05  2.100536781824E-05
  1.838542220767E-05  1.606869006643E-05  1.402311868230E-05  1.221967538467E-05
  1.063210459524E-05  9.236700077642E-06  8.012091853346E-06  6.939047231169E-06
  6.000285382355E-06  5.180304881362E-06  4.465223624611E-06  3.842630535109E-06
  3.301448460066E-06  2.831807671053E-06  2.424929381689E-06  2.073018706110E-06
  1.769166492217E-06  1.507259476768E-06  1.281898224359E-06  1.088322329137E-06
  9.223423762559E-07  7.802781795400E-07  6.589028321896E-07  5.553921284563E-07
  4.672789358408E-07  3.924121192640E-07  3.289196406817E-07  2.751754795647E-07
  2.297700413999E-07  1.914837427422E-07  1.592634822459E-07  1.322017274152E-07
  1.095179664579E-07  9.054229352454E-08  7.470091371085E-08  6.150337145346E-08
  5.053132232032E-08  4.142868367207E-08  3.389301423743E-08  2.766798630469E-08
  2.253682699032E-08  1.831661692041E-08  1.485334567220E-08  1.201763349782E-08
  9.701038222515E-09  7.812874807910E-09  6.277482935877E-09  5.031885137995E-09
  4.023784510050E-09  3.209856951181E-09  2.554298193825E-09  2.027590684118E-09
  1.605459672518E-09  1.267991719851E-09  9.988922520227E-10  7.848618430607E-10
  6.150736050527E-10  4.807364471033E-10  3.747310639776E-10  2.913073569813E-10
  2.258336012076E-10  1.745890789753E-10  1.345931215718E-10  1.034645609042E-10
  7.930650816007E-11  6.061216516454E-11  4.618805123577E-11  3.509160790553E-11
  2.658063834585E-11  2.007245887364E-11  1.511099639018E-11  1.134036682597E-11
  8.483723339809E-12  6.326375961755E-12  4.702362522184E-12  3.483799257861E-12
  2.572462933034E-12  1.893158551888E-12  1.388511122039E-12  1.014889334523E-12
  7.392259134522E-13  5.365458518528E-13  3.880515646573E-13  2.796446550998E-13
  2.007887684823E-13  1.436379547192E-13  1.023709606281E-13  7.268465812559E-14
  5.140999304785E-14  3.622190795610E-14  2.542108894492E-14  1.777033251585E-14
  0.000000000000E+00  0.000000000000E+00  0.000000000000E+00  0.000000000000E+00
  0.000000000000E+00  0.000000000000E+00  0.000000000000E+00  0.000000000000E+00
  0.000000000000E+00  0.000000000000E+00  0.000000000000E+00  0.000000000000E+00
  0.000000000000E+00  0.000000000000E+00  0.000000000000E+00  0.000000000000E+00
  0.000000000000E+00  0.000000000000E+00  0.000000000000E+00  0.000000000000E+00
  0.000000000000E+00  0.000000000000E+00  0.000000000000E+00  0.000000000000E+00
  0.000000000000E+00  0.000000000000E+00  0.000000000000E+00  0.000000000000E+00
  0.000000000000E+00  0.000000000000E+00  0.000000000000E+00  0.000000000000E+00
  0.000000000000E+00  0.000000000000E+00  0.000000000000E+00  0.000000000000E+00
  0.000000000000E+00  0.000000000000E+00  0.000000000000E+00  0.000000000000E+00
  0.000000000000E+00  0.000000000000E+00  0.000000000000E+00  0.000000000000E+00
  0.000000000000E+00  0.000000000000E+00  0.000000000000E+00  0.000000000000E+00
  0.000000000000E+00  0.000000000000E+00  0.000000000000E+00  0.000000000000E+00
  0.000000000000E+00  0.000000000000E+00  0.000000000000E+00  0.000000000000E+00
  0.000000000000E+00  0.000000000000E+00  0.000000000000E+00  0.000000000000E+00
  0.000000000000E+00  0.000000000000E+00  0.000000000000E+00  0.000000000000E+00
  0.000000000000E+00
</data>
</radfunc>
</valence-charge>
<semilocal-potentials set="scalar_relativistic">
<slps n="1" l="s" rc="1.00957126689" eref="-0.238601713026">
<radfunc>
<data npts="232">
 -4.598429577865E+00 -4.597947604277E+00 -4.596507788635E+00 -4.594108055643E+00
 -4.590776454068E+00 -4.586404294564E+00 -4.580846031231E+00 -4.574500496613E+00
 -4.567389893783E+00 -4.559130022492E+00 -4.549860979312E+00 -4.539835293656E+00
 -4.527786277240E+00 -4.515280415365E+00 -4.500629220395E+00 -4.486105341399E+00
 -4.469512879738E+00 -4.453913661284E+00 -4.436524308471E+00 -4.417163632942E+00
 -4.395638028280E+00 -4.376721136174E+00 -4.356177260502E+00 -4.333892318955E+00
 -4.309748985370E+00 -4.283627524149E+00 -4.255406812514E+00 -4.232790649361E+00
 -4.208874627224E+00 -4.183608735484E+00 -4.156944141585E+00 -4.128833627536E+00
 -4.099232046932E+00 -4.068096792931E+00 -4.035388264237E+00 -4.001070311841E+00
 -3.965110644579E+00 -3.927481165883E+00 -3.901455299754E+00 -3.874670787398E+00
 -3.847122621794E+00 -3.818806656403E+00 -3.789719553835E+00 -3.759858707343E+00
 -3.729222131022E+00 -3.697808314607E+00 -3.665616038555E+00 -3.632644145145E+00
 -3.598891261481E+00 -3.564355470636E+00 -3.529033927784E+00 -3.492922419041E+00
 -3.456014861974E+00 -3.418302748482E+00 -3.379774532949E+00 -3.340414971315E+00
 -3.300204420353E+00 -3.259118110537E+00 -3.217125411158E+00 -3.174189112251E+00
 -3.130264754900E+00 -3.085300049439E+00 -3.039234429786E+00 -2.991998801807E+00
 -2.943515553681E+00 -2.893698906559E+00 -2.842455693890E+00 -2.816268299641E+00
 -2.789686666791E+00 -2.762697756160E+00 -2.735288429968E+00 -2.707445554479E+00
 -2.679156116667E+00 -2.650407355777E+00 -2.621186910417E+00 -2.591482981850E+00
 -2.561284514043E+00 -2.530581390800E+00 -2.499364650305E+00 -2.467626717027E+00
 -2.435361650907E+00 -2.402565413262E+00 -2.369236148743E+00 -2.335374482191E+00
 -2.300983828859E+00 -2.266070716104E+00 -2.230645114040E+00 -2.194720772199E+00
 -2.158315558601E+00 -2.121451797018E+00 -2.084156597584E+00 -2.046462175101E+00
 -2.008406148805E+00 -1.970031816487E+00 -1.931388395209E+00 -1.892531220145E+00
 -1.853521892330E+00 -1.814428365649E+00 -1.775324962694E+00 -1.736292308975E+00
 -1.697417174559E+00 -1.658792212340E+00 -1.620515582351E+00 -1.582690452011E+00
 -1.545424363153E+00 -1.508828457791E+00 -1.473016556328E+00 -1.438104083901E+00
 -1.404206843118E+00 -1.371439634497E+00 -1.339914729293E+00 -1.309740203331E+00
 -1.281018145021E+00 -1.253842755994E+00 -1.228298367426E+00 -1.204457400468E+00
 -1.182378305092E+00 -1.162103517081E+00 -1.143657478492E+00 -1.127044771998E+00
 -1.112248424331E+00 -1.099228437994E+00 -1.087920613605E+00 -1.078235727269E+00
 -1.070059128010E+00 -1.063250819496E+00 -1.057646087583E+00 -1.053056730542E+00
 -1.049272942079E+00 -1.046065888001E+00 -1.043191005891E+00 -1.040392042884E+00
 -1.037405830018E+00 -1.033967772203E+00 -1.029818010975E+00 -1.024708192792E+00
 -1.018408748735E+00 -1.010716562500E+00 -1.001463433638E+00 -9.905180485599E-01
 -9.787821588035E-01 -9.671787950733E-01 -9.557068326934E-01 -9.443750303939E-01
 -9.331767244306E-01 -9.221113184143E-01 -9.111771206536E-01 -9.003725785542E-01
 -8.896961549708E-01 -8.791463306795E-01 -8.687216045025E-01 -8.584204930582E-01
 -8.482415305557E-01 -8.381832685837E-01 -8.282442759052E-01 -8.184231382544E-01
 -8.087184581345E-01 -7.991288546193E-01 -7.896529631567E-01 -7.802894353741E-01
 -7.710369388872E-01 -7.618941571097E-01 -7.528597890661E-01 -7.439325492069E-01
 -7.351111672250E-01 -7.263943878755E-01 -7.177809707966E-01 -7.092696903332E-01
 -7.008593353627E-01 -6.925487091220E-01 -6.843366290379E-01 -6.762219265580E-01
 -6.682034469852E-01 -6.602800493124E-01 -6.524506060611E-01 -6.447140031200E-01
 -6.370691395870E-01 -6.295149276126E-01 -6.220502922444E-01 -6.146741712747E-01
 -6.073855150895E-01 -6.001832865184E-01 -5.930664606879E-01 -5.860340248750E-01
 -5.790849783633E-01 -5.722183323010E-01 -5.654331095597E-01 -5.587283445961E-01
 -5.521030833143E-01 -5.455563829303E-01 -5.390873118385E-01 -5.326949494785E-01
 -5.263783862053E-01 -5.201367231594E-01 -5.139690721397E-01 -5.078745554772E-01
 -5.018523059106E-01 -4.959014664633E-01 -4.900211903217E-01 -4.842106407145E-01
 -4.784689907961E-01 -4.727954235289E-01 -4.671891315644E-01 -4.616493171323E-01
 -4.561751919259E-01 -4.507659769908E-01 -4.454209026141E-01 -4.401392082158E-01
 -4.349201422403E-01 -4.297629620500E-01 -4.246669338200E-01 -4.196313324337E-01
 -4.146554413798E-01 -4.097385526502E-01 -4.048799666397E-01 -4.000789920459E-01
 -3.953349457707E-01 -3.906471528232E-01 -3.860149462229E-01 -3.814376669045E-01
 -3.769146636240E-01 -3.724452928647E-01 -3.680289187456E-01 -3.636649129301E-01
 -3.593526545356E-01 -3.550915300446E-01 -3.508809332162E-01 -3.467202649993E-01
 -3.426089334463E-01 -3.385463536277E-01 -3.345319475484E-01 -3.305651440641E-01
</data>
</radfunc>
</slps>
<slps n="2" l="p" rc="0.705864932553" eref="0.500000037560E-01">
<radfunc>
<data npts="232">
 -5.843046406645E+00 -5.840662133424E+00 -5.833545048113E+00 -5.821704807273E+00
 -5.805312177163E+00 -5.783879947652E+00 -5.756765318399E+00 -5.725991027313E+00
 -5.691736001818E+00 -5.652250005541E+00 -5.608331964073E+00 -5.561297390243E+00
 -5.505417056709E+00 -5.448167132186E+00 -5.382070611001E+00 -5.317590080492E+00
 -5.245199712548E+00 -5.178385899467E+00 -5.105329203033E+00 -5.025762145058E+00
 -4.939494326063E+00 -4.865593897698E+00 -4.787365880783E+00 -4.704896321576E+00
 -4.618351661159E+00 -4.527991457735E+00 -4.434180758935E+00 -4.361843450426E+00
 -4.288082779573E+00 -4.213188966554E+00 -4.137493615357E+00 -4.061368820565E+00
 -3.985224711971E+00 -3.909505085560E+00 -3.834680751754E+00 -3.761240231613E+00
 -3.689677457203E+00 -3.620476192432E+00 -3.575880297820E+00 -3.532659986833E+00
 -3.490924713966E+00 -3.450766851421E+00 -3.412257871394E+00 -3.375444363393E+00
 -3.340343962548E+00 -3.306941285960E+00 -3.275183996653E+00 -3.244979138749E+00
 -3.216189912029E+00 -3.188633078239E+00 -3.162077214055E+00 -3.136242044779E+00
 -3.110799106777E+00 -3.085373992944E+00 -3.059550431353E+00 -3.032876429619E+00
 -3.004872683342E+00 -2.975043392500E+00 -2.942889552021E+00 -2.907924678771E+00
 -2.869692804951E+00 -2.827788406705E+00 -2.781877747564E+00 -2.731720903443E+00
 -2.677193506283E+00 -2.618307009366E+00 -2.555226055656E+00 -2.522209282594E+00
 -2.488281344407E+00 -2.453510619048E+00 -2.417976269656E+00 -2.381767989076E+00
 -2.344985581753E+00 -2.307738373096E+00 -2.270144438094E+00 -2.232329643545E+00
 -2.194426501128E+00 -2.156572831776E+00 -2.118910245941E+00 -2.081582448378E+00
 -2.044733381119E+00 -2.008505223219E+00 -1.973036271469E+00 -1.938458731809E+00
 -1.904896456892E+00 -1.872462670930E+00 -1.841257728191E+00 -1.811366956544E+00
 -1.782858641533E+00 -1.755782209808E+00 -1.730166672848E+00 -1.706019392494E+00
 -1.683325228958E+00 -1.662046128882E+00 -1.642121206097E+00 -1.623467360353E+00
 -1.605980469492E+00 -1.589537178424E+00 -1.573997293424E+00 -1.559206773490E+00
 -1.545001291183E+00 -1.531210314678E+00 -1.517661640483E+00 -1.504186283432E+00
 -1.490623607746E+00 -1.476826560884E+00 -1.462666851919E+00 -1.448039898893E+00
 -1.432869356643E+00 -1.417111028886E+00 -1.401068248317E+00 -1.385233562562E+00
 -1.369536981381E+00 -1.353971045957E+00 -1.338528682151E+00 -1.323203298273E+00
 -1.307988890963E+00 -1.292880157810E+00 -1.277872614724E+00 -1.262962715339E+00
 -1.248147969024E+00 -1.233427053300E+00 -1.218799915795E+00 -1.204267860270E+00
 -1.189833610785E+00 -1.175501347803E+00 -1.161276710058E+00 -1.147166756208E+00
 -1.133179880989E+00 -1.119325681489E+00 -1.105614770605E+00 -1.092058536508E+00
 -1.078668849149E+00 -1.065457717426E+00 -1.052436903451E+00 -1.039617503338E+00
 -1.027009506811E+00 -1.014621350451E+00 -1.002460042319E+00 -9.905247744534E-01
 -9.787821588035E-01 -9.671787950733E-01 -9.557068326934E-01 -9.443750303939E-01
 -9.331767244306E-01 -9.221113184143E-01 -9.111771206536E-01 -9.003725785542E-01
 -8.896961549708E-01 -8.791463306795E-01 -8.687216045025E-01 -8.584204930582E-01
 -8.482415305557E-01 -8.381832685837E-01 -8.282442759052E-01 -8.184231382544E-01
 -8.087184581345E-01 -7.991288546193E-01 -7.896529631567E-01 -7.802894353741E-01
 -7.710369388872E-01 -7.618941571097E-01 -7.528597890661E-01 -7.439325492069E-01
 -7.351111672250E-01 -7.263943878755E-01 -7.177809707966E-01 -7.092696903332E-01
 -7.008593353627E-01 -6.925487091220E-01 -6.843366290379E-01 -6.762219265580E-01
 -6.682034469852E-01 -6.602800493124E-01 -6.524506060611E-01 -6.447140031200E-01
 -6.370691395870E-01 -6.295149276126E-01 -6.220502922444E-01 -6.146741712747E-01
 -6.073855150895E-01 -6.001832865184E-01 -5.930664606879E-01 -5.860340248750E-01
 -5.790849783633E-01 -5.722183323010E-01 -5.654331095597E-01 -5.587283445961E-01
 -5.521030833143E-01 -5.455563829303E-01 -5.390873118385E-01 -5.326949494785E-01
 -5.263783862053E-01 -5.201367231594E-01 -5.139690721397E-01 -5.078745554772E-01
 -5.018523059106E-01 -4.959014664633E-01 -4.900211903217E-01 -4.842106407145E-01
 -4.784689907961E-01 -4.727954235289E-01 -4.671891315644E-01 -4.616493171323E-01
 -4.561751919259E-01 -4.507659769908E-01 -4.454209026141E-01 -4.401392082158E-01
 -4.349201422403E-01 -4.297629620500E-01 -4.246669338200E-01 -4.196313324337E-01
 -4.146554413798E-01 -4.097385526502E-01 -4.048799666397E-01 -4.000789920459E-01
 -3.953349457707E-01 -3.906471528232E-01 -3.860149462229E-01 -3.814376669045E-01
 -3.769146636240E-01 -3.724452928647E-01 -3.680289187456E-01 -3.636649129301E-01
 -3.593526545356E-01 -3.550915300446E-01 -3.508809332162E-01 -3.467202649993E-01