<?xml version="1.0" encoding="UTF-8" ?>
<psml version="1.1" energy_unit="hartree" length_unit="bohr"
 uuid="6380fd40-be6d-11e7-5b3c-22c3b7b326d9"
 xmlns="http://esl.cecam.org/PSML/ns/1.1">
<provenance creator="ONCVPSP-3.3.0+psml-3.3.0-73 (scalar-relativistic)"
 date="2017-10-31">
<annotation action="semilocal-pseudopotential-generation"
 action-cont="projectors-generation" />
<input-file name="oncvpsp-input">
<![CDATA[# atsym z nc nv iexc psfile
Tl 81 10 5 4 upf
# n l f
1 0 2.0
2 0 2.0
2 1 6.0
3 0 2.0
3 1 6.0
3 2 10.0
4 0 2.0
4 1 6.0
4 2 10.0
4 3 14.0
5 0 2.0
5 1 6.0
5 2 10.0
6 0 2.0
6 1 1.0
# lmax
2
# l rc ep ncon nbas qcut
0 1.4 0.0 4 8 9.0
1 1.5 0.0 4 8 8.4
2 1.4 0.0 4 8 9.0
# lloc lpopt rc5 dvloc0
4 5 1.3 0.0
# l nproj debl
0 2 1.0
1 2 1.0
2 2 2.5
# icmod fcfact rcfact
3 9.0 1.2
# epsh1 epsh2 depsh
-12.0 12.0 0.02
# rlmax drl
6.0 0.01
 0
]]>
</input-file>
</provenance>
<pseudo-atom-spec atomic-label="Tl" atomic-number="81" z-pseudo="21"
 flavor="Hamann&apos;s oncvpsp" relativity="scalar" spin-dft="no"
 core-corrections="yes">
<annotation pseudo-energy="-174.598931727" />
<exchange-correlation>
<annotation oncvpsp-xc-code="4" oncvpsp-xc-type="GGA -- Perdew-Burke-Ernzerhof" />
<libxc-info number-of-functionals="2">
<functional name="Perdew, Burke &amp; Ernzerhof (GGA)" type="exchange" id="101" />
<functional name="Perdew, Burke &amp; Ernzerhof (GGA)" type="correlation"
 id="130" />
</libxc-info>
</exchange-correlation>
<valence-configuration total-valence-charge="21">
<shell n="5" l="s" occupation="2" />
<shell n="5" l="p" occupation="6" />
<shell n="5" l="d" occupation="10" />
<shell n="6" l="s" occupation="2" />
<shell n="6" l="p" occupation="1" />
</valence-configuration>
</pseudo-atom-spec>
<grid npts="457">
<annotation type="sampled from oncvpsp log grid"
 recipe="r(i:1..N) = r1*exp(a*(i-1)) + r=0; resampled"
 recipe-cont="r1: scale; a: step" scale="0.617283950617E-05"
 step="0.119285708653E-01" delta="0.500000000000E-02" rmax="44.0862366899" />
<grid-data>
  0.000000000000E+00  5.034229527132E-03  1.005547840830E-02  1.508482106348E-02
  2.008502899497E-02  2.519429444232E-02  3.049231521517E-02  3.560713762894E-02
  4.108688469256E-02  4.629225516251E-02  5.153863959675E-02  5.669921561583E-02
  6.237652131689E-02  6.780859383762E-02  7.283964381425E-02  7.824397190261E-02
  8.404927342464E-02  8.921472189043E-02  9.469762530576E-02  1.005174936213E-01
  1.066950358184E-01  1.119093217371E-01  1.173784346723E-01  1.231148282578E-01
  1.291315647484E-01  1.354423447633E-01  1.420615384838E-01  1.472373699362E-01
  1.526017762239E-01  1.581616278312E-01  1.639240455596E-01  1.698964096482E-01
  1.760863692255E-01  1.825018521063E-01  1.891510749455E-01  1.960425537609E-01
  2.031851148411E-01  2.105879060489E-01  2.156723404525E-01  2.208795334404E-01
  2.262124488958E-01  2.316741222619E-01  2.372676622698E-01  2.429962527077E-01
  2.488631542330E-01  2.548717062288E-01  2.610253287040E-01  2.673275242402E-01
  2.737818799855E-01  2.803920696959E-01  2.871618558266E-01  2.940950916737E-01
  3.011957235671E-01  3.084677931169E-01  3.159154395139E-01  3.235429018855E-01
  3.313545217086E-01  3.393547452808E-01  3.475481262508E-01  3.559393282110E-01
  3.645331273513E-01  3.733344151781E-01  3.823482012982E-01  3.915796162703E-01
  4.010339145255E-01  4.107164773579E-01  4.206328159872E-01  4.256804097790E-01
  4.307885746964E-01  4.359580375927E-01  4.411895340438E-01  4.464838084524E-01
  4.518416141538E-01  4.572637135236E-01  4.627508780859E-01  4.683038886230E-01
  4.739235352864E-01  4.796106177099E-01  4.853659451224E-01  4.911903364639E-01
  4.970846205014E-01  5.030496359474E-01  5.090862315788E-01  5.151952663578E-01
  5.213776095540E-01  5.276341408687E-01  5.339657505591E-01  5.403733395658E-01
  5.468578196406E-01  5.534201134763E-01  5.600611548380E-01  5.667818886961E-01
  5.735832713604E-01  5.804662706168E-01  5.874318658642E-01  5.944810482545E-01
  6.016148208336E-01  6.088341986836E-01  6.161402090678E-01  6.235338915766E-01
  6.310162982755E-01  6.385884938548E-01  6.462515557811E-01  6.540065744505E-01
  6.618546533439E-01  6.697969091840E-01  6.778344720942E-01  6.859684857593E-01
  6.942001075884E-01  7.025305088795E-01  7.109608749861E-01  7.194924054859E-01
  7.281263143517E-01  7.368638301239E-01  7.457061960854E-01  7.546546704385E-01
  7.637105264837E-01  7.728750528015E-01  7.821495534351E-01  7.915353480764E-01
  8.010337722533E-01  8.106461775203E-01  8.203739316506E-01  8.302184188304E-01
  8.401810398563E-01  8.502632123346E-01  8.604663708826E-01  8.707919673332E-01
  8.812414709412E-01  8.918163685925E-01  9.025181650156E-01  9.133483829958E-01
  9.243085635918E-01  9.354002663549E-01  9.466250695511E-01  9.579845703857E-01
  9.694803852304E-01  9.811141498531E-01  9.928875196514E-01  1.004802169887E+00
  1.016859795926E+00  1.029062113477E+00  1.041410858839E+00  1.053907789145E+00
  1.066554682614E+00  1.079353338806E+00  1.092305578871E+00  1.105413245818E+00
  1.118678204768E+00  1.132102343225E+00  1.145687571344E+00  1.159435822200E+00
  1.173349052066E+00  1.187429240691E+00  1.201678391579E+00  1.216098532278E+00
  1.230691714666E+00  1.245460015242E+00  1.260405535424E+00  1.275530401850E+00
  1.290836766672E+00  1.306326807872E+00  1.322002729566E+00  1.337866762321E+00
  1.353921163469E+00  1.370168217431E+00  1.386610236040E+00  1.403249558872E+00
  1.420088553579E+00  1.437129616222E+00  1.454375171616E+00  1.471827673676E+00
  1.489489605760E+00  1.507363481029E+00  1.525451842801E+00  1.543757264915E+00
  1.562282352094E+00  1.581029740319E+00  1.600002097203E+00  1.619202122369E+00
  1.638632547838E+00  1.658296138412E+00  1.678195692073E+00  1.698334040378E+00
  1.718714048862E+00  1.739338617448E+00  1.760210680858E+00  1.781333209028E+00
  1.802709207536E+00  1.824341718027E+00  1.846233818643E+00  1.868388624467E+00
  1.890809287960E+00  1.913498999416E+00  1.936460987409E+00  1.959698519258E+00
  1.983214901489E+00  2.007013480307E+00  2.031097642071E+00  2.055470813775E+00
  2.080136463541E+00  2.105098101103E+00  2.130359278316E+00  2.155923589656E+00
  2.181794672732E+00  2.207976208805E+00  2.234471923311E+00  2.261285586390E+00
  2.288421013427E+00  2.315882065588E+00  2.343672650375E+00  2.371796722180E+00
  2.400258282846E+00  2.429061382240E+00  2.458210118827E+00  2.487708640253E+00
  2.517561143936E+00  2.547771877663E+00  2.578345140195E+00  2.609285281877E+00
  2.640596705260E+00  2.672283865723E+00  2.704351272112E+00  2.736803487377E+00
  2.769645129225E+00  2.802880870776E+00  2.836515441225E+00  2.870553626520E+00
  2.905000270038E+00  2.939860273279E+00  2.975138596558E+00  3.010840259717E+00
  3.046970342834E+00  3.083533986948E+00  3.120536394791E+00  3.157982831528E+00
  3.195878625507E+00  3.234229169013E+00  3.273039919041E+00  3.312316398069E+00
  3.352064194846E+00  3.392288965184E+00  3.432996432767E+00  3.474192389960E+00
  3.515882698639E+00  3.558073291023E+00  3.600770170515E+00  3.643979412562E+00
  3.687707165512E+00  3.731959651498E+00  3.776743167316E+00  3.822064085324E+00
  3.867928854348E+00  3.914344000600E+00  3.961316128607E+00  4.008851922151E+00
  4.056958145217E+00  4.105641642959E+00  4.154909342675E+00  4.204768254787E+00
  4.255225473844E+00  4.306288179530E+00  4.357963637685E+00  4.410259201337E+00
  4.463182311753E+00  4.516740499494E+00  4.570941385488E+00  4.625792682114E+00
  4.681302194299E+00  4.737477820631E+00  4.794327554478E+00  4.851859485132E+00
  4.910081798954E+00  4.969002780541E+00  5.028630813908E+00  5.088974383674E+00
  5.150042076279E+00  5.211842581194E+00  5.274384692168E+00  5.337677308474E+00
  5.401729436176E+00  5.466550189410E+00  5.532148791683E+00  5.598534577183E+00
  5.665716992109E+00  5.733705596015E+00  5.802510063167E+00  5.872140183925E+00
  5.942605866132E+00  6.013917136526E+00  6.086084142164E+00  6.159117151870E+00
  6.233026557692E+00  6.307822876385E+00  6.383516750901E+00  6.460118951912E+00
  6.537640379335E+00  6.616092063887E+00  6.695485168654E+00  6.775830990677E+00
  6.857140962566E+00  6.939426654116E+00  7.022699773966E+00  7.106972171253E+00
  7.192255837308E+00  7.278562907356E+00  7.365905662244E+00  7.454296530191E+00
  7.543748088554E+00  7.634273065616E+00  7.725884342404E+00  7.818594954512E+00
  7.912418093967E+00  8.007367111094E+00  8.103455516427E+00  8.200696982624E+00
  8.299105346416E+00  8.398694610573E+00  8.499478945900E+00  8.601472693251E+00
  8.704690365570E+00  8.809146649956E+00  8.914856409756E+00  9.021834686673E+00
  9.130096702913E+00  9.239657863348E+00  9.350533757708E+00  9.462740162801E+00
  9.576293044754E+00  9.691208561291E+00  9.807503064027E+00  9.925193100795E+00
  1.004429541800E+01  1.016482696302E+01  1.028680488658E+01  1.041024654522E+01
  1.053516950376E+01  1.066159153780E+01  1.078953063626E+01  1.091900500389E+01
  1.105003306394E+01  1.118263346071E+01  1.131682506223E+01  1.145262696298E+01
  1.159005848654E+01  1.172913918838E+01  1.186988885864E+01  1.201232752494E+01
  1.215647545524E+01  1.230235316070E+01  1.244998139863E+01  1.259938117541E+01
  1.275057374952E+01  1.290358063451E+01  1.305842360213E+01  1.321512468535E+01
  1.337370618158E+01  1.353419065576E+01  1.369660094363E+01  1.386096015495E+01
  1.402729167681E+01  1.419561917693E+01  1.436596660705E+01  1.453835820634E+01
  1.471281850481E+01  1.488937232687E+01  1.506804479479E+01  1.524886133233E+01
  1.543184766832E+01  1.561702984034E+01  1.580443419842E+01  1.599408740880E+01
  1.618601645771E+01  1.638024865520E+01  1.657681163907E+01  1.677573337873E+01
  1.697704217928E+01  1.718076668543E+01  1.738693588566E+01  1.759557911628E+01
  1.780672606568E+01  1.802040677847E+01  1.823665165981E+01  1.845549147973E+01
  1.867695737748E+01  1.890108086601E+01  1.912789383640E+01  1.935742856244E+01
  1.958971770519E+01  1.982479431765E+01  2.006269184946E+01  2.030344415166E+01
  2.054708548148E+01  2.079365050726E+01  2.104317431334E+01  2.129569240510E+01
  2.155124071396E+01  2.180985560253E+01  2.207157386976E+01  2.233643275620E+01
  2.260446994927E+01  2.287572358867E+01  2.315023227173E+01  2.342803505899E+01
  2.370917147970E+01  2.399368153745E+01  2.428160571590E+01  2.457298498449E+01
  2.486786080431E+01  2.516627513396E+01  2.546827043557E+01  2.577388968079E+01
  2.608317635696E+01  2.639617447325E+01  2.671292856693E+01  2.703348370973E+01
  2.735788551425E+01  2.768618014042E+01  2.801841430210E+01  2.835463527373E+01
  2.869489089701E+01  2.903922958778E+01  2.938770034283E+01  2.974035274694E+01
  3.009723697991E+01  3.045840382367E+01  3.082390466955E+01  3.119379152558E+01
  3.156811702389E+01  3.194693442818E+01  3.233029764132E+01  3.271826121301E+01
  3.311088034757E+01  3.350821091174E+01  3.391030944268E+01  3.431723315599E+01
  3.472903995386E+01  3.514578843331E+01  3.556753789451E+01  3.599434834924E+01
  3.642628052944E+01  3.686339589579E+01  3.730575664654E+01  3.775342572630E+01
  3.820646683501E+01  3.866494443703E+01  3.912892377028E+01  3.959847085552E+01
  4.007365250579E+01  4.055453633586E+01  4.104119077189E+01  4.153368506115E+01
  4.203208928188E+01  4.253647435326E+01  4.304691204550E+01  4.356347499005E+01
  4.408623668993E+01
</grid-data>
</grid>
<valence-charge total-charge="21" is-unscreening-charge="yes"
 rescaled-to-z-pseudo="no">
<radfunc>
<data npts="457">
  2.603460291808E+00  2.605843884673E+00  2.612969844661E+00  2.624860424572E+00
  2.641396627780E+00  2.663147452642E+00  2.690880885229E+00  2.722654932068E+00
  2.762141614851E+00  2.804863721200E+00  2.853055944248E+00  2.905481880746E+00
  2.968902730431E+00  3.035210045308E+00  3.101520877955E+00  3.177989327662E+00
  3.266161280808E+00  3.349852543607E+00  3.444067794582E+00  3.550116146280E+00
  3.669464846029E+00  3.775617676757E+00  3.892260229200E+00  4.020408420619E+00
  4.161171057137E+00  4.315756790937E+00  4.485481139410E+00  4.623564462049E+00
  4.771611897180E+00  4.930310117507E+00  5.100386615752E+00  5.282610755516E+00
  5.477794515987E+00  5.686792835728E+00  5.910503441382E+00  6.149866024530E+00
  6.405860603844E+00  6.679504879801E+00  6.872257804695E+00  7.073640631615E+00
  7.283976956976E+00  7.503594050218E+00  7.732821577183E+00  7.971990099160E+00
  8.221429321476E+00  8.481466063451E+00  8.752421919485E+00  9.034610579016E+00
  9.328334771181E+00  9.633882798306E+00  9.951524620888E+00  1.028150745566E+01
  1.062405084774E+01  1.097934117804E+01  1.134752556787E+01  1.172870514478E+01
  1.212292763686E+01  1.253017926741E+01  1.295037592874E+01  1.338335362225E+01
  1.382885816373E+01  1.428653416668E+01  1.475591333423E+01  1.523640211155E+01
  1.572726877624E+01  1.622763007400E+01  1.673643754236E+01  1.699363237349E+01
  1.725246370491E+01  1.751274788153E+01  1.777428836463E+01  1.803687532919E+01
  1.830028527500E+01  1.856428065502E+01  1.882860952418E+01  1.909300521265E+01
  1.935718602717E+01  1.962085498506E+01  1.988369958504E+01  2.014539161991E+01
  2.040558703580E+01  2.066392584348E+01  2.092003208702E+01  2.117351387542E+01
  2.142396348329E+01  2.167095752628E+01  2.191405721756E+01  2.215280871154E+01
  2.238674354095E+01  2.261537915360E+01  2.283821955487E+01  2.305475606199E+01
  2.326446817571E+01  2.346682457497E+01  2.366128423950E+01  2.384729770484E+01
  2.402430845381E+01  2.419175444750E+01  2.434906979819E+01  2.449568658553E+01
  2.463103681618E+01  2.475455452609E+01  2.486567802280E+01  2.496385226420E+01
  2.504853136795E+01  2.511918124459E+01  2.517528234501E+01  2.521633251137E+01
  2.524184991822E+01  2.525137608876E+01  2.524447896876E+01  2.522075603885E+01
  2.517983744347E+01  2.512138911302E+01  2.504511585363E+01  2.495076437749E+01
  2.483812624473E+01  2.470704068707E+01  2.455739728200E+01  2.438913844595E+01
  2.420226171470E+01  2.399682177917E+01  2.377293224600E+01  2.353076709308E+01
  2.327056179233E+01  2.299261407416E+01  2.269728431092E+01  2.238499550030E+01
  2.205623283322E+01  2.171154283528E+01  2.135153207552E+01  2.097686544122E+01
  2.058826398263E+01  2.018650233674E+01  1.977240574443E+01  1.934684668012E+01
  1.891074111800E+01  1.846504446253E+01  1.801074717493E+01  1.754887012988E+01
  1.708045973866E+01  1.660658287634E+01  1.612832165055E+01  1.564676804917E+01
  1.516301850254E+01  1.467816839425E+01  1.419330655168E+01  1.370950974507E+01
  1.322783722107E+01  1.274932529415E+01  1.227498201752E+01  1.180578195414E+01
  1.134266106794E+01  1.088651175732E+01  1.043817805475E+01  9.998451020729E+00
  9.568064365388E+00  9.147690337026E+00  8.737935924063E+00  8.339339423739E+00
  7.952367437754E+00  7.577412360779E+00  7.214790431881E+00  6.864740421074E+00
  6.527423023327E+00  6.202921028537E+00  5.891240326230E+00  5.592311790845E+00
  5.305995721627E+00  5.032093774426E+00  4.770364956054E+00  4.520531521623E+00
  4.282281811684E+00  4.055275450595E+00  3.839148731810E+00  3.633523644817E+00
  3.438018443958E+00  3.252249885113E+00  3.075835294813E+00  2.908394387974E+00
  2.749550890440E+00  2.598933965440E+00  2.456179455169E+00  2.320930950359E+00
  2.192840696593E+00  2.071570349763E+00  1.956791591700E+00  1.848186617120E+00
  1.745448502863E+00  1.648281470146E+00  1.556401050173E+00  1.469534163102E+00
  1.387419119875E+00  1.309805555965E+00  1.236454305578E+00  1.167137224307E+00
  1.101636967726E+00  1.039746732824E+00  9.812699686884E-01  9.260200622709E-01
  8.738200045772E-01  8.245020420975E-01  7.779073178184E-01  7.338855056897E-01
  6.922944419758E-01  6.529997565093E-01  6.158745064710E-01  5.807988149581E-01
  5.476595162676E-01  5.163498095079E-01  4.867689218725E-01  4.588217826464E-01
  4.324187087890E-01  4.074751027199E-01  3.839111627552E-01  3.616516064693E-01
  3.406254071180E-01  3.207655431283E-01  3.020087605523E-01  2.842953482936E-01
  2.675689258298E-01  2.517762430980E-01  2.368669921532E-01  2.227936301703E-01
  2.095112133296E-01  1.969772411037E-01  1.851515104466E-01  1.739959793830E-01
  1.634746394874E-01  1.535533967525E-01  1.441999603469E-01  1.353837387787E-01
  1.270757429918E-01  1.192484959416E-01  1.118759481938E-01  1.049333991643E-01
  9.839742356407E-02  9.224580268758E-02  8.645746018502E-02  8.101240198144E-02
  7.589166002756E-02  7.107723958725E-02  6.655206978723E-02  6.229995717381E-02
  5.830554204028E-02  5.455425730678E-02  5.103228975166E-02  4.772654340956E-02
  4.462460496702E-02  4.171471100115E-02  3.898571692017E-02  3.642706747781E-02
  3.402876874515E-02  3.178136143464E-02  2.967589548124E-02  2.770390579479E-02
  2.585738910658E-02  2.412878184069E-02  2.251093894795E-02  2.099711364659E-02
  1.958093801976E-02  1.825640442504E-02  1.701784767576E-02  1.585992795811E-02
  1.477761445169E-02  1.376616962411E-02  1.282113417331E-02  1.193831259339E-02
  1.111375934211E-02  1.034376558964E-02  9.624846529740E-03  8.953729236008E-03
  8.327341046407E-03  7.742798460565E-03  7.197396534683E-03  6.688598759567E-03
  6.214027407650E-03  5.771454335179E-03  5.358792225958E-03  4.974086263203E-03
  4.615506216118E-03  4.281338927909E-03  3.969981191936E-03  3.679933002751E-03
  3.409791168727E-03  3.158243273046E-03  2.924061969756E-03  2.706099601700E-03
  2.503283127127E-03  2.314609341863E-03  2.139140384060E-03  1.975999508629E-03
  1.824367118648E-03  1.683477041243E-03  1.552613035650E-03  1.431105521453E-03
  1.318328515274E-03  1.213696764521E-03  1.116663067166E-03  1.026715766869E-03
  9.433764131971E-04  8.661975770590E-04  7.947608119276E-04  7.286747518265E-04
  6.675733375005E-04  6.111141626124E-04  5.589769322323E-04  5.108620263006E-04
  4.664891611503E-04  4.255961425609E-04  3.879377041939E-04  3.532844256125E-04
  3.214217244323E-04  2.921489174654E-04  2.652783460300E-04  2.406345608781E-04
  2.180535624720E-04  1.973820925885E-04  1.784769734815E-04  1.612044910578E-04
  1.454398187495E-04  1.310664789724E-04  1.179758392731E-04  1.060666404577E-04
  9.524455419514E-05  8.542176776953E-05  7.651659384060E-05  6.845310324380E-05
  6.116077903262E-05  5.457419012654E-05  4.863268308298E-05  4.328009065823E-05
  3.846445595972E-05  3.413777112054E-05  3.025572954551E-05  2.677749088647E-05
  2.366545800219E-05  2.088506524598E-05  1.840457750128E-05  1.619489945258E-05
  1.422939463696E-05  1.248371386995E-05  1.093563267999E-05  9.564897418187E-06
  8.353079736258E-06  7.283439145023E-06  6.340793380745E-06  5.511396316615E-06
  4.782823163409E-06  4.143862706972E-06  3.584416331739E-06  3.095403579384E-06
  2.668673990616E-06  2.296924976444E-06  1.973625463477E-06  1.692945056217E-06
  1.449688458224E-06  1.239234893631E-06  1.057482270948E-06  9.007958325234E-07
  7.659610354617E-07  6.501404132788E-07  5.508341720741E-07  4.658442804620E-07
  3.932418188851E-07  3.313373611298E-07  2.786541687890E-07  2.339039879615E-07
  1.959652465306E-07  1.638634598236E-07  1.367536621969E-07  1.139046920266E-07
  9.468516760646E-08  7.855100102995E-08  6.503431029558E-08  5.373358941633E-08
  4.430502388498E-08  3.645482893173E-08  2.993250921727E-08  2.452494275085E-08
  2.005120065395E-08  1.635802211719E-08  1.331587118688E-08  1.081550886140E-08
  8.765020373324E-09  7.087243483211E-09  5.717549123700E-09  4.601930817757E-09
  3.695363967472E-09  2.960400386099E-09  2.365967344656E-09  1.886343945375E-09
  1.500290838629E-09  1.190312189155E-09  9.420313931976E-10  7.436643722907E-10
  5.855763429565E-10  4.599098054185E-10  3.602731283540E-10  2.814805498452E-10
  2.193356850548E-10  1.704517457665E-10  1.321026516772E-10  1.021000629806E-10
  7.869210198703E-11  6.048017082600E-11  4.635082412751E-11  3.542013040661E-11
  2.698836310614E-11  2.050321038046E-11  1.552998934126E-11  1.172760242907E-11
  8.829186859119E-12  6.626588058029E-12  4.957939365190E-12  3.697757147779E-12
  2.749066478772E-12  2.037160792390E-12  1.504672182011E-12  1.107689590539E-12
  8.127120823361E-13  5.942654087099E-13  4.330436614066E-13  3.144652044216E-13
  2.275543451148E-13  1.640782458569E-13  1.178831390095E-13  8.438561831968E-14
  6.018416553799E-14  4.276356210074E-14  3.027079645906E-14  2.134580022632E-14
  1.499407500844E-14  1.049120421659E-14  7.311541527456E-15  5.075160479998E-15
  3.508543281132E-15  2.415565834273E-15  1.656167986397E-15  1.130736931013E-15
  7.687203807911E-16  5.203583213718E-16  3.507044500547E-16  2.353215974829E-16
  1.571957490293E-16  1.045333160013E-16  6.919578320052E-17  4.559226166645E-17
  2.989953123188E-17  1.951524162048E-17  1.267632549745E-17  8.193995879065E-18
  5.270507921433E-18  0.000000000000E+00  0.000000000000E+00  0.000000000000E+00
  0.000000000000E+00
</data>
</radfunc>
</valence-charge>
<pseudocore-charge matching-radius="0.736863830124"
 number-of-continuous-derivatives="4">
<annotation model-charge-form="Teter function with specified parameters" />
<radfunc>
<data npts="290">
  2.422966155780E+02  2.422718030987E+02  2.421976355997E+02  2.420739165526E+02
  2.419019416522E+02  2.416758782531E+02  2.413878708109E+02  2.410582251555E+02
  2.406490420952E+02  2.402069266665E+02  2.397089413716E+02  2.391680918164E+02
  2.385150372527E+02  2.378336826501E+02  2.371537350425E+02  2.363714091327E+02
  2.354716904418E+02  2.346199921395E+02  2.336638464953E+02  2.325909362201E+02
  2.313876234354E+02  2.303210109906E+02  2.291529164118E+02  2.278742678027E+02
  2.264753046421E+02  2.249455520133E+02  2.232738003661E+02  2.219196351818E+02
  2.204735636161E+02  2.189300282294E+02  2.172832402121E+02  2.155271870378E+02
  2.136556438202E+02  2.116621889782E+02  2.095402248816E+02  2.072830042125E+02
  2.048836628421E+02  2.023352600882E+02  2.005500711901E+02  1.986934749043E+02
  1.967634255489E+02  1.947579015445E+02  1.926749161166E+02  1.905125290788E+02
  1.882688597555E+02  1.859421010996E+02  1.835305350568E+02  1.810325492211E+02
  1.784466548240E+02  1.757715060843E+02  1.730059209415E+02  1.701489031759E+02
  1.671996659090E+02  1.641576564530E+02  1.610225824598E+02  1.577944392928E+02
  1.544735385166E+02  1.510605373636E+02  1.475564690021E+02  1.439627733865E+02
  1.402813284240E+02  1.365144811425E+02  1.326650784884E+02  1.287364973240E+02
  1.247326731334E+02  1.206581268784E+02  1.165179893824E+02  1.144250993593E+02
  1.123180225500E+02  1.101975806397E+02  1.080646366661E+02  1.059200952874E+02
  1.037649029556E+02  1.016000479878E+02  9.942656052728E+01  9.724551238827E+01
  9.505801677542E+01  9.286522787074E+01  9.066834028027E+01  8.846858833266E+01
  8.626724522219E+01  8.406562198859E+01  8.186506632650E+01  7.966696121744E+01
  7.747272337775E+01  7.528380151610E+01  7.310167439486E+01  7.092784869007E+01
  6.876385664561E+01  6.661125351750E+01  6.447161480579E+01  6.234653327175E+01
  6.023761573963E+01  5.814647968327E+01  5.607474959906E+01  5.402405316825E+01
  5.199601721310E+01  4.999226345295E+01  4.801440406796E+01  4.606403708025E+01
  4.414274156401E+01  4.225207269799E+01  4.039355667635E+01  3.856868549537E+01
  3.677891163638E+01  3.502564266703E+01  3.331023578564E+01  3.163399233539E+01
  2.999815231766E+01  2.840388893572E+01  2.685230320243E+01  2.534441864732E+01
  2.388117616057E+01  2.246342901300E+01  2.109193809260E+01  1.976736739961E+01
  1.849027984274E+01  1.726113338009E+01  1.608027754842E+01  1.494795042400E+01
  1.386427605809E+01  1.282926242838E+01  1.184279994665E+01  1.090466055992E+01
  1.001449748020E+01  9.171845573943E+00  8.376122438435E+00  7.626630187470E+00
  6.922557963317E+00  6.262985185860E+00  5.646885543180E+00  5.073131720592E+00
  4.540500857422E+00  4.047680712573E+00  3.593276511380E+00  3.175818437374E+00
  2.793769723561E+00  2.445535288761E+00  2.129470855590E+00  1.843892477963E+00
  1.587086397736E+00  1.357319142421E+00  1.152847769035E+00  9.719301532267E-01
  8.128352180803E-01  6.738529935921E-01  5.533043959260E-01  4.495506153360E-01
  3.610020032380E-01  2.861263524235E-01  2.234564699143E-01  1.715969494952E-01
  1.292300605264E-01  9.512068117288E-02  6.812021758616E-02  4.716946566871E-02
  3.130038861938E-02  1.963680122217E-02  1.139397046053E-02  5.877161128676E-03
  2.479174237151E-03  6.769447010517E-04  2.728256126358E-05  1.618583144079E-04
  7.815473125164E-04  1.650260156533E-03  2.588395106298E-03  3.466054380710E-03
  4.196168521121E-03  4.727671531731E-03  5.038864199763E-03  5.131093870140E-03
  5.022866176262E-03  4.744488124773E-03  4.333322953679E-03  3.829715919552E-03
  3.273627329768E-03  2.701985526254E-03  2.146749023039E-03  1.633644509668E-03
  1.181526857619E-03  8.022894582017E-04  5.012389321410E-04  2.778380968191E-04
  1.267154891153E-04  3.883893668035E-05  2.754625690822E-06  5.801554518534E-06
  3.522366749030E-05  7.911757802314E-05  1.271716677468E-04  1.711713951769E-04
  2.052646913980E-04  2.259991830178E-04  2.321585613500E-04  2.244377638369E-04
  2.050050310452E-04  1.770029224482E-04  1.440399207538E-04  1.097195803068E-04
  7.724586914413E-05  4.913230020021E-05  2.702975233264E-05  1.167478226867E-05
  2.947976537316E-06  2.163691132063E-08  1.568764457598E-06  6.001520425315E-06
  1.170732652513E-05  1.725433806956E-05  2.154459819812E-05  2.390184216713E-05
  2.409052029984E-05  2.227190848245E-05  1.891100204203E-05  1.465328539886E-05
  1.019282534583E-05  6.152272141026E-06  2.991552439319E-06  9.560064290694E-07
  6.748267289248E-08  0.000000000000E+00  0.000000000000E+00  0.000000000000E+00
  0.000000000000E+00  0.000000000000E+00  0.000000000000E+00  0.000000000000E+00
  0.000000000000E+00  0.000000000000E+00  0.000000000000E+00  0.000000000000E+00
  0.000000000000E+00  0.000000000000E+00  0.000000000000E+00  0.000000000000E+00
  0.000000000000E+00  0.000000000000E+00  0.000000000000E+00  0.000000000000E+00
  0.000000000000E+00  0.000000000000E+00  0.000000000000E+00  0.000000000000E+00
  0.000000000000E+00  0.000000000000E+00  0.000000000000E+00  0.000000000000E+00
  0.000000000000E+00  0.000000000000E+00  0.000000000000E+00  0.000000000000E+00
  0.000000000000E+00  0.000000000000E+00  0.000000000000E+00  0.000000000000E+00
  0.000000000000E+00  0.000000000000E+00  0.000000000000E+00  0.000000000000E+00
  0.000000000000E+00  0.000000000000E+00  0.000000000000E+00  0.000000000000E+00
  0.000000000000E+00  0.000000000000E+00  0.000000000000E+00  0.000000000000E+00
  0.000000000000E+00  0.000000000000E+00  0.000000000000E+00  0.000000000000E+00
  0.000000000000E+00  0.000000000000E+00  0.000000000000E+00  0.000000000000E+00
  0.000000000000E+00  0.000000000000E+00  0.000000000000E+00  0.000000000000E+00
  0.000000000000E+00  0.000000000000E+00  0.000000000000E+00  0.000000000000E+00
  0.000000000000E+00  0.000000000000E+00  0.000000000000E+00  0.000000000000E+00
  0.000000000000E+00  0.000000000000E+00
</data>
</radfunc>
</pseudocore-charge>
<semilocal-potentials set="scalar_relativistic">
<slps n="5" l="s" rc="1.40324955887" eref="-4.81419380551">
<radfunc>
<data npts="290">
 -8.746027725391E+00 -8.749990185556E+00 -8.761829115327E+00 -8.781559917146E+00
 -8.808949781601E+00 -8.844889146755E+00 -8.890569708588E+00 -8.942708395491E+00
 -9.007211282617E+00 -9.076638177328E+00 -9.154507877939E+00 -9.238686010880E+00
 -9.339784761236E+00 -9.444636534739E+00 -9.548637958181E+00 -9.667522551823E+00
 -9.803230211043E+00 -9.930703922277E+00 -1.007267528986E+01 -1.023057223977E+01
 -1.040590781553E+01 -1.055979742249E+01 -1.072670570078E+01 -1.090749400342E+01
 -1.110303461274E+01 -1.131420088850E+01 -1.154185537129E+01 -1.172392188912E+01
 -1.191607398785E+01 -1.211863321800E+01 -1.233189891127E+01 -1.255614295376E+01
 -1.279160416219E+01 -1.303848229312E+01 -1.329693172767E+01 -1.356705488745E+01
 -1.384889545124E+01 -1.414243145604E+01 -1.434457610847E+01 -1.455183102585E+01
 -1.476413231091E+01 -1.498139864831E+01 -1.520353048425E+01 -1.543040924698E+01
 -1.566189661573E+01 -1.589783384572E+01 -1.613804115621E+01 -1.638231718849E+01
 -1.663043853978E+01 -1.688215937854E+01 -1.713721114542E+01 -1.739530234348E+01
 -1.765611841961E+01 -1.791932173823E+01 -1.818455164653E+01 -1.845142462943E+01
 -1.871953455057E+01 -1.898845297439E+01 -1.925772956276E+01 -1.952689253833E+01
 -1.979544920538E+01 -2.006288651800E+01 -2.032867168464E+01 -2.059225279721E+01
 -2.085305947309E+01 -2.111050349806E+01 -2.136397945905E+01 -2.148903567238E+01
 -2.161286535632E+01 -2.173538826487E+01 -2.185652318619E+01 -2.197618795894E+01
 -2.209429948738E+01 -2.221077375652E+01 -2.232552584602E+01 -2.243846994368E+01
 -2.254951935829E+01 -2.265858653192E+01 -2.276558305168E+01 -2.287041966104E+01
 -2.297300627097E+01 -2.307325197078E+01 -2.317106503896E+01 -2.326635295418E+01
 -2.335902240663E+01 -2.344897930985E+01 -2.353612881338E+01 -2.362037531644E+01
 -2.370162248290E+01 -2.377977325798E+01 -2.385472988680E+01 -2.392639393534E+01
 -2.399466631412E+01 -2.405944730493E+01 -2.412063659123E+01 -2.417813329253E+01
 -2.423183600322E+01 -2.428164283656E+01 -2.432745147409E+01 -2.436915922127E+01
 -2.440666306972E+01 -2.443985976682E+01 -2.446864589323E+01 -2.449291794893E+01
 -2.451257244856E+01 -2.452750602662E+01 -2.453761555333E+01 -2.454279826181E+01
 -2.454295188734E+01 -2.453797481956E+01 -2.452776626815E+01 -2.451222644309E+01
 -2.449125675015E+01 -2.446476000241E+01 -2.443264064891E+01 -2.439480502110E+01
 -2.435116159807E+01 -2.430162129170E+01 -2.424609775235E+01 -2.418450769649E+01
 -2.411677125698E+01 -2.404281235721E+01 -2.396255911016E+01 -2.387594424341E+01
 -2.378290555118E+01 -2.368338637455E+01 -2.357733611097E+01 -2.346471075409E+01
 -2.334547346515E+01 -2.321959517724E+01 -2.308705523353E+01 -2.294784206129E+01
 -2.280195388337E+01 -2.264939946940E+01 -2.249019892962E+01 -2.232438455486E+01
 -2.215200170748E+01 -2.197310976918E+01 -2.178778315326E+01 -2.159611239108E+01
 -2.139820530460E+01 -2.119418827988E+01 -2.098420765947E+01 -2.076843127547E+01
 -2.054705014929E+01 -2.032028038879E+01 -2.008836531907E+01 -1.985157788904E+01