<?xml version="1.0" encoding="UTF-8" ?>
<psml version="1.1" energy_unit="hartree" length_unit="bohr"
 uuid="12e81fc0-be46-11e7-7018-d0f089db2282"
 xmlns="http://esl.cecam.org/PSML/ns/1.1">
<provenance creator="ONCVPSP-3.3.0+psml-3.3.0-73 (scalar-relativistic)"
 date="2017-10-31">
<annotation action="semilocal-pseudopotential-generation"
 action-cont="projectors-generation" />
<input-file name="oncvpsp-input">
<![CDATA[# atsym z nc nv iexc psfile
Tl 81 12 3 4 upf
# n l f
1 0 2.0
2 0 2.0
2 1 6.0
3 0 2.0
3 1 6.0
3 2 10.0
4 0 2.0
4 1 6.0
4 2 10.0
5 0 2.0
5 1 6.0
4 3 14.0
5 2 10.0
6 0 2.0
6 1 1.0
# lmax
2
# l rc ep ncon nbas qcut
0 2.1 0.0 4 7 2.9
1 2.6 0.0 4 7 2.6
2 2.0 0.0 4 8 7.4
# lloc lpopt rc5 dvloc0
4 5 2.0 0.0
# l nproj debl
0 2 2.6
1 2 3.1
2 2 1.0
# icmod fcfact
3 7.0 1.3
# epsh1 epsh2 depsh
-12.0 12.0 0.02
# rlmax drl
6.0 0.01
 0
]]>
</input-file>
</provenance>
<pseudo-atom-spec atomic-label="Tl" atomic-number="81" z-pseudo="13"
 flavor="Hamann&apos;s oncvpsp" relativity="scalar" spin-dft="no"
 core-corrections="yes">
<annotation pseudo-energy="-50.6573834556" />
<exchange-correlation>
<annotation oncvpsp-xc-code="4" oncvpsp-xc-type="GGA -- Perdew-Burke-Ernzerhof" />
<libxc-info number-of-functionals="2">
<functional name="Perdew, Burke &amp; Ernzerhof (GGA)" type="exchange" id="101" />
<functional name="Perdew, Burke &amp; Ernzerhof (GGA)" type="correlation"
 id="130" />
</libxc-info>
</exchange-correlation>
<valence-configuration total-valence-charge="13">
<shell n="5" l="d" occupation="10" />
<shell n="6" l="s" occupation="2" />
<shell n="6" l="p" occupation="1" />
</valence-configuration>
</pseudo-atom-spec>
<grid npts="457">
<annotation type="sampled from oncvpsp log grid"
 recipe="r(i:1..N) = r1*exp(a*(i-1)) + r=0; resampled"
 recipe-cont="r1: scale; a: step" scale="0.617283950617E-05"
 step="0.119285708653E-01" delta="0.500000000000E-02" rmax="44.0862366899" />
<grid-data>
  0.000000000000E+00  5.034229527132E-03  1.005547840830E-02  1.508482106348E-02
  2.008502899497E-02  2.519429444232E-02  3.049231521517E-02  3.560713762894E-02
  4.108688469256E-02  4.629225516251E-02  5.153863959675E-02  5.669921561583E-02
  6.237652131689E-02  6.780859383762E-02  7.283964381425E-02  7.824397190261E-02
  8.404927342464E-02  8.921472189043E-02  9.469762530576E-02  1.005174936213E-01
  1.066950358184E-01  1.119093217371E-01  1.173784346723E-01  1.231148282578E-01
  1.291315647484E-01  1.354423447633E-01  1.420615384838E-01  1.472373699362E-01
  1.526017762239E-01  1.581616278312E-01  1.639240455596E-01  1.698964096482E-01
  1.760863692255E-01  1.825018521063E-01  1.891510749455E-01  1.960425537609E-01
  2.031851148411E-01  2.105879060489E-01  2.156723404525E-01  2.208795334404E-01
  2.262124488958E-01  2.316741222619E-01  2.372676622698E-01  2.429962527077E-01
  2.488631542330E-01  2.548717062288E-01  2.610253287040E-01  2.673275242402E-01
  2.737818799855E-01  2.803920696959E-01  2.871618558266E-01  2.940950916737E-01
  3.011957235671E-01  3.084677931169E-01  3.159154395139E-01  3.235429018855E-01
  3.313545217086E-01  3.393547452808E-01  3.475481262508E-01  3.559393282110E-01
  3.645331273513E-01  3.733344151781E-01  3.823482012982E-01  3.915796162703E-01
  4.010339145255E-01  4.107164773579E-01  4.206328159872E-01  4.256804097790E-01
  4.307885746964E-01  4.359580375927E-01  4.411895340438E-01  4.464838084524E-01
  4.518416141538E-01  4.572637135236E-01  4.627508780859E-01  4.683038886230E-01
  4.739235352864E-01  4.796106177099E-01  4.853659451224E-01  4.911903364639E-01
  4.970846205014E-01  5.030496359474E-01  5.090862315788E-01  5.151952663578E-01
  5.213776095540E-01  5.276341408687E-01  5.339657505591E-01  5.403733395658E-01
  5.468578196406E-01  5.534201134763E-01  5.600611548380E-01  5.667818886961E-01
  5.735832713604E-01  5.804662706168E-01  5.874318658642E-01  5.944810482545E-01
  6.016148208336E-01  6.088341986836E-01  6.161402090678E-01  6.235338915766E-01
  6.310162982755E-01  6.385884938548E-01  6.462515557811E-01  6.540065744505E-01
  6.618546533439E-01  6.697969091840E-01  6.778344720942E-01  6.859684857593E-01
  6.942001075884E-01  7.025305088795E-01  7.109608749861E-01  7.194924054859E-01
  7.281263143517E-01  7.368638301239E-01  7.457061960854E-01  7.546546704385E-01
  7.637105264837E-01  7.728750528015E-01  7.821495534351E-01  7.915353480764E-01
  8.010337722533E-01  8.106461775203E-01  8.203739316506E-01  8.302184188304E-01
  8.401810398563E-01  8.502632123346E-01  8.604663708826E-01  8.707919673332E-01
  8.812414709412E-01  8.918163685925E-01  9.025181650156E-01  9.133483829958E-01
  9.243085635918E-01  9.354002663549E-01  9.466250695511E-01  9.579845703857E-01
  9.694803852304E-01  9.811141498531E-01  9.928875196514E-01  1.004802169887E+00
  1.016859795926E+00  1.029062113477E+00  1.041410858839E+00  1.053907789145E+00
  1.066554682614E+00  1.079353338806E+00  1.092305578871E+00  1.105413245818E+00
  1.118678204768E+00  1.132102343225E+00  1.145687571344E+00  1.159435822200E+00
  1.173349052066E+00  1.187429240691E+00  1.201678391579E+00  1.216098532278E+00
  1.230691714666E+00  1.245460015242E+00  1.260405535424E+00  1.275530401850E+00
  1.290836766672E+00  1.306326807872E+00  1.322002729566E+00  1.337866762321E+00
  1.353921163469E+00  1.370168217431E+00  1.386610236040E+00  1.403249558872E+00
  1.420088553579E+00  1.437129616222E+00  1.454375171616E+00  1.471827673676E+00
  1.489489605760E+00  1.507363481029E+00  1.525451842801E+00  1.543757264915E+00
  1.562282352094E+00  1.581029740319E+00  1.600002097203E+00  1.619202122369E+00
  1.638632547838E+00  1.658296138412E+00  1.678195692073E+00  1.698334040378E+00
  1.718714048862E+00  1.739338617448E+00  1.760210680858E+00  1.781333209028E+00
  1.802709207536E+00  1.824341718027E+00  1.846233818643E+00  1.868388624467E+00
  1.890809287960E+00  1.913498999416E+00  1.936460987409E+00  1.959698519258E+00
  1.983214901489E+00  2.007013480307E+00  2.031097642071E+00  2.055470813775E+00
  2.080136463541E+00  2.105098101103E+00  2.130359278316E+00  2.155923589656E+00
  2.181794672732E+00  2.207976208805E+00  2.234471923311E+00  2.261285586390E+00
  2.288421013427E+00  2.315882065588E+00  2.343672650375E+00  2.371796722180E+00
  2.400258282846E+00  2.429061382240E+00  2.458210118827E+00  2.487708640253E+00
  2.517561143936E+00  2.547771877663E+00  2.578345140195E+00  2.609285281877E+00
  2.640596705260E+00  2.672283865723E+00  2.704351272112E+00  2.736803487377E+00
  2.769645129225E+00  2.802880870776E+00  2.836515441225E+00  2.870553626520E+00
  2.905000270038E+00  2.939860273279E+00  2.975138596558E+00  3.010840259717E+00
  3.046970342834E+00  3.083533986948E+00  3.120536394791E+00  3.157982831528E+00
  3.195878625507E+00  3.234229169013E+00  3.273039919041E+00  3.312316398069E+00
  3.352064194846E+00  3.392288965184E+00  3.432996432767E+00  3.474192389960E+00
  3.515882698639E+00  3.558073291023E+00  3.600770170515E+00  3.643979412562E+00
  3.687707165512E+00  3.731959651498E+00  3.776743167316E+00  3.822064085324E+00
  3.867928854348E+00  3.914344000600E+00  3.961316128607E+00  4.008851922151E+00
  4.056958145217E+00  4.105641642959E+00  4.154909342675E+00  4.204768254787E+00
  4.255225473844E+00  4.306288179530E+00  4.357963637685E+00  4.410259201337E+00
  4.463182311753E+00  4.516740499494E+00  4.570941385488E+00  4.625792682114E+00
  4.681302194299E+00  4.737477820631E+00  4.794327554478E+00  4.851859485132E+00
  4.910081798954E+00  4.969002780541E+00  5.028630813908E+00  5.088974383674E+00
  5.150042076279E+00  5.211842581194E+00  5.274384692168E+00  5.337677308474E+00
  5.401729436176E+00  5.466550189410E+00  5.532148791683E+00  5.598534577183E+00
  5.665716992109E+00  5.733705596015E+00  5.802510063167E+00  5.872140183925E+00
  5.942605866132E+00  6.013917136526E+00  6.086084142164E+00  6.159117151870E+00
  6.233026557692E+00  6.307822876385E+00  6.383516750901E+00  6.460118951912E+00
  6.537640379335E+00  6.616092063887E+00  6.695485168654E+00  6.775830990677E+00
  6.857140962566E+00  6.939426654116E+00  7.022699773966E+00  7.106972171253E+00
  7.192255837308E+00  7.278562907356E+00  7.365905662244E+00  7.454296530191E+00
  7.543748088554E+00  7.634273065616E+00  7.725884342404E+00  7.818594954512E+00
  7.912418093967E+00  8.007367111094E+00  8.103455516427E+00  8.200696982624E+00
  8.299105346416E+00  8.398694610573E+00  8.499478945900E+00  8.601472693251E+00
  8.704690365570E+00  8.809146649956E+00  8.914856409756E+00  9.021834686673E+00
  9.130096702913E+00  9.239657863348E+00  9.350533757708E+00  9.462740162801E+00
  9.576293044754E+00  9.691208561291E+00  9.807503064027E+00  9.925193100795E+00
  1.004429541800E+01  1.016482696302E+01  1.028680488658E+01  1.041024654522E+01
  1.053516950376E+01  1.066159153780E+01  1.078953063626E+01  1.091900500389E+01
  1.105003306394E+01  1.118263346071E+01  1.131682506223E+01  1.145262696298E+01
  1.159005848654E+01  1.172913918838E+01  1.186988885864E+01  1.201232752494E+01
  1.215647545524E+01  1.230235316070E+01  1.244998139863E+01  1.259938117541E+01
  1.275057374952E+01  1.290358063451E+01  1.305842360213E+01  1.321512468535E+01
  1.337370618158E+01  1.353419065576E+01  1.369660094363E+01  1.386096015495E+01
  1.402729167681E+01  1.419561917693E+01  1.436596660705E+01  1.453835820634E+01
  1.471281850481E+01  1.488937232687E+01  1.506804479479E+01  1.524886133233E+01
  1.543184766832E+01  1.561702984034E+01  1.580443419842E+01  1.599408740880E+01
  1.618601645771E+01  1.638024865520E+01  1.657681163907E+01  1.677573337873E+01
  1.697704217928E+01  1.718076668543E+01  1.738693588566E+01  1.759557911628E+01
  1.780672606568E+01  1.802040677847E+01  1.823665165981E+01  1.845549147973E+01
  1.867695737748E+01  1.890108086601E+01  1.912789383640E+01  1.935742856244E+01
  1.958971770519E+01  1.982479431765E+01  2.006269184946E+01  2.030344415166E+01
  2.054708548148E+01  2.079365050726E+01  2.104317431334E+01  2.129569240510E+01
  2.155124071396E+01  2.180985560253E+01  2.207157386976E+01  2.233643275620E+01
  2.260446994927E+01  2.287572358867E+01  2.315023227173E+01  2.342803505899E+01
  2.370917147970E+01  2.399368153745E+01  2.428160571590E+01  2.457298498449E+01
  2.486786080431E+01  2.516627513396E+01  2.546827043557E+01  2.577388968079E+01
  2.608317635696E+01  2.639617447325E+01  2.671292856693E+01  2.703348370973E+01
  2.735788551425E+01  2.768618014042E+01  2.801841430210E+01  2.835463527373E+01
  2.869489089701E+01  2.903922958778E+01  2.938770034283E+01  2.974035274694E+01
  3.009723697991E+01  3.045840382367E+01  3.082390466955E+01  3.119379152558E+01
  3.156811702389E+01  3.194693442818E+01  3.233029764132E+01  3.271826121301E+01
  3.311088034757E+01  3.350821091174E+01  3.391030944268E+01  3.431723315599E+01
  3.472903995386E+01  3.514578843331E+01  3.556753789451E+01  3.599434834924E+01
  3.642628052944E+01  3.686339589579E+01  3.730575664654E+01  3.775342572630E+01
  3.820646683501E+01  3.866494443703E+01  3.912892377028E+01  3.959847085552E+01
  4.007365250579E+01  4.055453633586E+01  4.104119077189E+01  4.153368506115E+01
  4.203208928188E+01  4.253647435326E+01  4.304691204550E+01  4.356347499005E+01
  4.408623668993E+01
</grid-data>
</grid>
<valence-charge total-charge="13" is-unscreening-charge="yes"
 rescaled-to-z-pseudo="no">
<radfunc>
<data npts="457">
  1.732419482077E-03  1.734171389170E-03  1.740198931747E-03  1.752891862306E-03
  1.776018215936E-03  1.816125821926E-03  1.883209978303E-03  1.982000414021E-03
  2.137345879645E-03  2.345987318726E-03  2.631821092405E-03  3.003369459835E-03
  3.536982803706E-03  4.193053335186E-03  4.949150157398E-03  5.944726133618E-03
  7.256392230597E-03  8.662886252870E-03  1.043353160449E-02  1.266268350089E-02
  1.546884795501E-02  1.822793951604E-02  2.154379195357E-02  2.552773444163E-02
  3.031283460294E-02  3.605795302944E-02  4.295248934739E-02  4.901180100591E-02
  5.595409712608E-02  6.390500511341E-02  7.300721906051E-02  8.342262055556E-02
  9.533461488359E-02  1.089506922521E-01  1.245052204662E-01  1.422624709409E-01
  1.625198737503E-01  1.856114891981E-01  2.027635562297E-01  2.214623983030E-01
  2.418388963198E-01  2.640336811190E-01  2.881976548574E-01  3.144925063161E-01
  3.430912127766E-01  3.741785197420E-01  4.079513882481E-01  4.446193978093E-01
  4.844050911622E-01  5.275442449077E-01  5.742860479063E-01  6.248931668541E-01
  6.796416758704E-01  7.388208241802E-01  8.027326130958E-01  8.716911505371E-01
  9.460217483238E-01  1.026059724494E+00  1.112148870035E+00  1.204639536749E+00
  1.303886300692E+00  1.410245153768E+00  1.524070174980E+00  1.645709632571E+00
  1.775501469212E+00  1.913768124756E+00  2.060810655120E+00  2.137709492591E+00
  2.216902112083E+00  2.298417057705E+00  2.382280157395E+00  2.468514249321E+00
  2.557138896108E+00  2.648170087085E+00  2.741619928810E+00  2.837496324217E+00
  2.935802640874E+00  3.036537368905E+00  3.139693769290E+00  3.245259513364E+00
  3.353216314501E+00  3.463539553093E+00  3.576197896110E+00  3.691152912708E+00
  3.808358687490E+00  3.927761433255E+00  4.049299105242E+00  4.172901019069E+00
  4.298487474788E+00  4.425969389684E+00  4.555247942646E+00  4.686214233184E+00
  4.818748958329E+00  4.952722110930E+00  5.087992703005E+00  5.224408518055E+00
  5.361805896397E+00  5.500009557783E+00  5.638832465689E+00  5.778075737841E+00
  5.917528607611E+00  6.056968441029E+00  6.196160814178E+00  6.334859655779E+00
  6.472807459695E+00  6.609735572039E+00  6.745364557399E+00  6.879404648521E+00
  7.011556283501E+00  7.141510734238E+00  7.268950829476E+00  7.393551775272E+00
  7.514982075206E+00  7.632904551958E+00  7.746977471181E+00  7.856855767759E+00
  7.962192373666E+00  8.062639645615E+00  8.157850889658E+00  8.247481978717E+00
  8.331193057835E+00  8.408650330621E+00  8.479527919059E+00  8.543509787448E+00
  8.600291719836E+00  8.649583338904E+00  8.691110152810E+00  8.724615615155E+00
  8.749863181867E+00  8.766638347525E+00  8.774750642507E+00  8.774035571274E+00
  8.764356471230E+00  8.745606270881E+00  8.717709125533E+00  8.680621908491E+00
  8.634335535761E+00  8.578876102534E+00  8.514305810350E+00  8.440723664803E+00
  8.358265924928E+00  8.267106287090E+00  8.167455788186E+00  8.059562415392E+00
  7.943710412402E+00  7.820219275198E+00  7.689442433774E+00  7.551765619936E+00
  7.407604925195E+00  7.257404556912E+00  7.101634305092E+00  6.940786736564E+00
  6.775374137610E+00  6.605925230367E+00  6.432981692439E+00  6.257094513000E+00
  6.078820222237E+00  5.898717034093E+00  5.717340944906E+00  5.535241832632E+00
  5.352959602709E+00  5.171020427404E+00  4.989933125373E+00  4.810185727384E+00
  4.632242272469E+00  4.456539876287E+00  4.283486110229E+00  4.113456725680E+00
  3.946793753097E+00  3.783804000094E+00  3.624757966714E+00  3.469889189597E+00
  3.319394019938E+00  3.173431833146E+00  3.032125661026E+00  2.895563230371E+00
  2.763798385116E+00  2.636852862902E+00  2.514718391072E+00  2.397359061999E+00
  2.284713943202E+00  2.176699874145E+00  2.073214398888E+00  1.974138781934E+00
  1.879341053712E+00  1.788679032111E+00  1.702003267281E+00  1.619159858598E+00
  1.539993095113E+00  1.464347874030E+00  1.392071855751E+00  1.323017318838E+00
  1.257042683908E+00  1.194013682036E+00  1.133804150834E+00  1.076296449938E+00
  1.021381497232E+00  9.689584375993E-01  9.189336128420E-01  8.712179421240E-01
  8.257237646557E-01  7.823649311245E-01  7.410568696362E-01  7.017168204679E-01
  6.642641439359E-01  6.286204811854E-01  5.947098239414E-01  5.624585995072E-01
  5.317957122075E-01  5.026525600315E-01  4.749630254509E-01  4.486634426692E-01
  4.236925438833E-01  3.999913876431E-01  3.775032728609E-01  3.561736424187E-01
  3.359499806222E-01  3.167817089390E-01  2.986200845116E-01  2.814181058398E-01
  2.651304468641E-01  2.497134764520E-01  2.351253297424E-01  2.213258800862E-01
  2.082766658331E-01  1.959408487232E-01  1.842831604243E-01  1.732698508823E-01
  1.628686368021E-01  1.530486506174E-01  1.437803901323E-01  1.350356689812E-01
  1.267875680329E-01  1.190103878424E-01  1.116796022116E-01  1.047718129630E-01
  9.826470593220E-02  9.213700822930E-02  8.636844678791E-02  8.093970820796E-02
  7.583239989240E-02  7.102901246889E-02  6.651288348066E-02  6.226816232568E-02
  5.827977641831E-02  5.453339854445E-02  5.101541537832E-02  4.771289712732E-02
  4.461356826980E-02  4.170577935058E-02  3.897847979816E-02  3.642119172842E-02
  3.402398470001E-02  3.177745138757E-02  2.967268413996E-02  2.770125239221E-02
  2.585518090117E-02  2.412692877622E-02  2.250936927825E-02  2.099577036118E-02
  1.957977593225E-02  1.825538780837E-02  1.701694834733E-02  1.585912373391E-02
  1.477688790220E-02  1.376550707614E-02  1.282052491180E-02  1.193774822517E-02
  1.111323329038E-02  1.034327269378E-02  9.624382729587E-03  8.953291323578E-03
  8.326926471494E-03  7.742405179030E-03  7.197022890546E-03  6.688243393745E-03
  6.213689187611E-03  5.771132300969E-03  5.358485548979E-03  4.973794214880E-03
  4.615228144209E-03  4.281074238692E-03  3.969729336895E-03  3.679693468681E-03
  3.409563470439E-03  3.158026948015E-03  2.923856574236E-03  2.705904707924E-03
  2.503098321300E-03  2.314434222747E-03  2.138974561974E-03  1.975842604756E-03
  1.824218764555E-03  1.683336878543E-03  1.552480715774E-03  1.430980705477E-03
  1.318210873794E-03  1.213585977552E-03  1.116558824052E-03  1.026617766202E-03
  9.432843627334E-04  8.661111936357E-04  7.946798213729E-04  7.285988888660E-04
  6.675023456584E-04  6.110477941075E-04  5.589149478690E-04  5.108041953557E-04
  4.664352612553E-04  4.255459595812E-04  3.878910321037E-04  3.532410663674E-04
  3.213814878375E-04  2.921116210423E-04  2.652438148783E-04  2.406026275360E-04
  2.180240667721E-04  1.973548815114E-04  1.784519010052E-04  1.611814180042E-04
  1.454186126265E-04  1.310470138136E-04  1.179579954723E-04  1.060503046009E-04
  9.522961888847E-05  8.540813146376E-05  7.650416065239E-05  6.844178277402E-05
  6.115048618186E-05  5.456484490830E-05  4.862421043499E-05  4.327242025219E-05
  3.845752201010E-05  3.413151219295E-05  3.025008836514E-05  2.677241414716E-05
  2.366089617676E-05  2.088097239836E-05  1.840091110096E-05  1.619162019198E-05
  1.422646625221E-05  1.248110296558E-05  1.093330855792E-05  9.562831911572E-06
  8.351247048366E-06  7.281815693639E-06  6.339357648269E-06  5.510128706139E-06
  4.781705860923E-06  4.142879549845E-06  3.583552683553E-06  3.094646211167E-06
  2.668010968478E-06  2.296345555561E-06  1.973119988369E-06  1.692504867187E-06
  1.449305803847E-06  1.238902849103E-06  1.057194662130E-06  9.005471654657E-07
  7.657464311848E-07  6.499555475908E-07  5.506752201729E-07  4.657078660797E-07
  3.931249677227E-07  3.312374583310E-07  2.785689202022E-07  2.338313849429E-07
  1.959035340467E-07  1.638111076159E-07  1.367093387811E-07  1.138672413072E-07
  9.465358789539E-08  7.852442670861E-08  6.501199357781E-08  5.371488711065E-08
  4.428938346353E-08  3.644177678886E-08  2.992164029038E-08  2.451591136848E-08
  2.004371248634E-08  1.635182711424E-08  1.331075739790E-08  1.081129704031E-08
  8.761559281053E-09  7.084405807727E-09  5.715227945310E-09  4.600036554591E-09
  3.693821742633E-09  2.959147764073E-09  2.364952390177E-09  1.885523563051E-09
  1.499629356718E-09  1.189780154080E-09  9.416045468265E-10  7.433227861914E-10
  5.853036875704E-10  4.596927347701E-10  3.601007634315E-10  2.813440460054E-10
  2.192278707782E-10  1.703668218272E-10  1.320359413201E-10  1.020478050395E-10
  7.865128004792E-11  6.044837255708E-11  4.632612578364E-11  3.540100227802E-11
  2.697359234066E-11  2.049183817342E-11  1.552125997131E-11  1.172092203067E-11
  8.824090173185E-12  6.622711699564E-12  4.955000397394E-12  3.695535963311E-12
  2.747393165788E-12  2.035904310854E-12  1.503731798900E-12  1.106988124763E-12
  8.121905946456E-13  5.938790414960E-13  4.327583904261E-13  3.142553112500E-13
  2.274004572261E-13  1.639658221806E-13  1.178013038574E-13  8.432626676570E-14
  6.014127954559E-14  4.273268966887E-14  3.024865639781E-14  2.132998338558E-14
  1.498281927731E-14  1.048322572906E-14  7.305908525330E-15  5.071199423100E-15
  3.505769238413E-15  2.413631083979E-15  1.654824216341E-15  1.129807554836E-15
  7.680803473704E-16  5.199194512367E-16  3.504048312328E-16  2.351179500363E-16
  1.570579511716E-16  1.044404971805E-16  6.913354804188E-17  4.555072636259E-17
  2.987194096040E-17  1.949700156572E-17  1.266432493834E-17  8.186138910190E-18
  5.265389238131E-18  0.000000000000E+00  0.000000000000E+00  0.000000000000E+00
  0.000000000000E+00
</data>
</radfunc>
</valence-charge>
<pseudocore-charge matching-radius="1.10541324582"
 number-of-continuous-derivatives="4">
<annotation model-charge-form="Teter function with specified parameters" />
<radfunc>
<data npts="290">
  5.429612567261E+01  5.429402041361E+01  5.428772679194E+01  5.427722588492E+01
  5.426262397476E+01  5.424342036832E+01  5.421893959876E+01  5.419089869096E+01
  5.415606097164E+01  5.411838063271E+01  5.407589028510E+01  5.402968432817E+01
  5.397381133155E+01  5.391542209211E+01  5.385705628198E+01  5.378978181281E+01
  5.371225195326E+01  5.363870101612E+01  5.355594477292E+01  5.346284723577E+01
  5.335813656280E+01  5.326505594878E+01  5.316283079697E+01  5.305058203890E+01
  5.292735015781E+01  5.279208868697E+01  5.264365737102E+01  5.252294852151E+01
  5.239357241102E+01  5.225492968267E+01  5.210638306591E+01  5.194725553194E+01
  5.177682845198E+01  5.159433977769E+01  5.139898226718E+01  5.118990178449E+01
  5.096619570553E+01  5.072691146890E+01  5.055824056914E+01  5.038189073614E+01
  5.019754128039E+01  5.000486101936E+01  4.980350824057E+01  4.959313070425E+01
  4.937336569060E+01  4.914384009746E+01  4.890417059432E+01  4.865396383930E+01
  4.839281676614E+01  4.812031694888E+01  4.783604305234E+01  4.753956537719E+01
  4.723044650880E+01  4.690824207986E+01  4.657250165725E+01  4.622276976392E+01
  4.585858704770E+01  4.547949160873E+01  4.508502049825E+01  4.467471140153E+01
  4.424810451818E+01  4.380474465319E+01  4.334418353232E+01  4.286598235503E+01
  4.236971459822E+01  4.185496908348E+01  4.132135331946E+01  4.104735243713E+01
  4.076849713051E+01  4.048474525824E+01  4.019605658074E+01  3.990239289951E+01
  3.960371820127E+01  3.929999880703E+01  3.899120352592E+01  3.867730381400E+01
  3.835827393781E+01  3.803409114276E+01  3.770473582621E+01  3.737019171521E+01
  3.703044604873E+01  3.668548976437E+01  3.633531768926E+01  3.597992873506E+01
  3.561932609684E+01  3.525351745558E+01  3.488251518404E+01  3.450633655570E+01
  3.412500395646E+01  3.373854509863E+01  3.334699323690E+01  3.295038738587E+01
  3.254877253841E+01  3.214219988467E+01  3.173072703078E+01  3.131441821689E+01
  3.089334453372E+01  3.046758413683E+01  3.003722245806E+01  2.960235241294E+01
  2.916307460347E+01  2.871949751518E+01  2.827173770739E+01  2.781991999573E+01
  2.736417762566E+01  2.690465243588E+01  2.644149501030E+01  2.597486481733E+01
  2.550493033504E+01  2.503186916085E+01  2.455586810417E+01  2.407712326061E+01
  2.359584006601E+01  2.311223332879E+01  2.262652723897E+01  2.213895535212E+01
  2.164976054652E+01  2.115919495195E+01  2.066751984814E+01  2.017500553135E+01
  1.968193114729E+01  1.918858448860E+01  1.869526175537E+01  1.820226727700E+01
  1.770991319377E+01  1.721851909691E+01  1.672841162542E+01  1.623992401875E+01
  1.575339562392E+01  1.526917135631E+01  1.478760111324E+01  1.430903913974E+01
  1.383384334613E+01  1.336237457737E+01  1.289499583419E+01  1.243207144661E+01
  1.197396620035E+01  1.152104441760E+01  1.107366899322E+01  1.063220038858E+01
  1.019699558510E+01  9.768407000300E+00  9.346781369587E+00  8.932458597280E+00
  8.525770581166E+00  8.127040015158E+00  7.736579175203E+00  7.354688694128E+00
  6.981656331586E+00  6.617755745769E+00  6.263245274076E+00  5.918366730369E+00
  5.583344226897E+00  5.258383029401E+00  4.943668454258E+00  4.639364816856E+00
  4.345614440646E+00  4.062536736511E+00  3.790227362204E+00  3.528757471615E+00
  3.278173063591E+00  3.038494439811E+00  2.809715780960E+00  2.591804850003E+00
  2.384702830829E+00  2.188324309848E+00  2.002557407299E+00  1.827264064058E+00
  1.662280488629E+00  1.507417767739E+00  1.362462642560E+00  1.227178451064E+00
  1.101306235345E+00  9.845660109753E-01  8.766581936181E-01  7.772651761480E-01
  6.860530475512E-01  6.026734428425E-01  5.267655112103E-01  4.579579876050E-01
  3.958713510633E-01  3.401200512375E-01  2.903147829316E-01  2.460647869590E-01
  2.069801543849E-01  1.726741102357E-01  1.427652520892E-01  1.168797186409E-01
  9.465326340857E-02  7.573320921599E-02  5.978026001160E-02  4.647014794365E-02
  3.549509543448E-02  2.656507426997E-02  1.940884642909E-02  1.377477449543E-02
  9.431392976570E-03  6.167735654838E-03  3.793418137137E-03  2.138478984431E-03
  1.052987091666E-03  4.064272578017E-04  8.688002535680E-05  1.576756735811E-08
  6.792654506627E-05  2.278223310755E-04  4.306207085554E-04  6.394609788567E-04
  8.281747080266E-04  9.797450117758E-04  1.084786303870E-03  1.140074792534E-03
  1.147157721844E-03  1.111066267769E-03  1.039153191270E-03  9.400719346652E-04
  8.229089627816E-04  6.964759627874E-04  5.687632121839E-04  4.465502021574E-04
  3.351646675916E-04  2.383767252277E-04  1.584110431823E-04  9.605701916631E-05
  5.085495790552E-05  2.133529397697E-05  5.288038028927E-06  4.081087294057E-08
  2.725993425864E-06  1.052052824162E-05  2.084557802381E-05  3.151735488489E-05
  4.084472957092E-05  4.767344746809E-05  5.138065695455E-05  5.182675666489E-05
  4.927409245746E-05  4.428363902409E-05  3.760141013255E-05  3.004595647483E-05
  2.240701003293E-05  1.536327116183E-05  9.424723663565E-06  4.901962895372E-06
  1.902113160335E-06  3.482699476663E-07  1.727584736314E-08  5.892161821758E-07
  1.701415506530E-06  2.999953918394E-06  4.182734548036E-06  5.029766367130E-06
  5.418356216520E-06  5.323064273597E-06  4.802291131092E-06  3.974979864625E-06
  2.991938321045E-06  2.006605147650E-06  1.149687823439E-06  5.110844662457E-07
  1.310451651914E-07  8.771856138053E-10  0.000000000000E+00  0.000000000000E+00
  0.000000000000E+00  0.000000000000E+00  0.000000000000E+00  0.000000000000E+00
  0.000000000000E+00  0.000000000000E+00  0.000000000000E+00  0.000000000000E+00
  0.000000000000E+00  0.000000000000E+00  0.000000000000E+00  0.000000000000E+00
  0.000000000000E+00  0.000000000000E+00  0.000000000000E+00  0.000000000000E+00
  0.000000000000E+00  0.000000000000E+00  0.000000000000E+00  0.000000000000E+00
  0.000000000000E+00  0.000000000000E+00  0.000000000000E+00  0.000000000000E+00
  0.000000000000E+00  0.000000000000E+00
</data>
</radfunc>
</pseudocore-charge>
<semilocal-potentials set="scalar_relativistic">
<slps n="6" l="s" rc="2.10509810110" eref="-0.350818102229">
<radfunc>
<data npts="290">
  4.386313895835E+01  4.383458676348E+01  4.374938601095E+01  4.360774559800E+01
  4.341185662823E+01  4.315610716122E+01  4.283312433364E+01  4.246730388837E+01
  4.201884683924E+01  4.154116772886E+01  4.101148235168E+01  4.044599318294E+01
  3.977640195772E+01  3.909274436068E+01  3.842523617993E+01  3.767483020247E+01
  3.683427096014E+01  3.605985435875E+01  3.521413117740E+01  3.429367039633E+01
  3.329557274066E+01  3.243968906419E+01  3.153196007776E+01  3.057207033234E+01
  2.956017888851E+01  2.849697370377E+01  2.738372032105E+01  2.651704507839E+01
  2.562429662778E+01  2.470671718735E+01  2.376576009051E+01  2.280308846589E+01
  2.182057078176E+01  2.082027313252E+01  1.980444822998E+01  1.877552115420E+01
  1.773607201678E+01  1.668881578829E+01  1.598769994558E+01  1.528522934546E+01
  1.458227820270E+01  1.387973105761E+01  1.317847916266E+01  1.247941683459E+01
  1.178343780779E+01  1.109143162494E+01  1.040428009986E+01  9.722853886624E+00
  9.048009186555E+00  8.380584622708E+00  7.721398308238E+00  7.071245131729E+00
  6.430894278781E+00  5.801087005088E+00  5.182534671931E+00  4.575917050578E+00
  3.981880897535E+00  3.401038798053E+00  2.833968270809E+00  2.281211122251E+00
  1.743273034853E+00  1.220623369436E+00  7.136951578145E-01  2.228852583448E-01
 -2.514453564773E-01 -7.089712144882E-01 -1.149401897502E+00 -1.363125262535E+00
 -1.572481574047E+00 -1.777444184021E+00 -1.977988553664E+00 -2.174092243833E+00
 -2.365734907605E+00 -2.552898285372E+00 -2.735566202857E+00 -2.913724572443E+00
 -3.087361398212E+00 -3.256466785098E+00 -3.421032952564E+00 -3.581054253187E+00
 -3.736527196580E+00 -3.887450479028E+00 -4.033825019238E+00 -4.175654000590E+00
 -4.312942920256E+00 -4.445699645545E+00 -4.573934477823E+00 -4.697660224299E+00
 -4.816892277991E+00 -4.931648706104E+00 -5.041950347037E+00 -5.147820916177E+00
 -5.249287120601E+00 -5.346378782697E+00 -5.439128972704E+00 -5.527574150017E+00
 -5.611754313066E+00 -5.691713157412E+00 -5.767498241636E+00 -5.839161160398E+00
 -5.906757723938E+00 -5.970348143094E+00 -6.029997218726E+00 -6.085774534244E+00
 -6.137754649695E+00 -6.186017295644E+00 -6.230647564809E+00 -6.271736099153E+00
 -6.309379269839E+00 -6.343679347151E+00 -6.374744657191E+00 -6.402689721834E+00
 -6.427635378071E+00 -6.449708872703E+00 -6.469043927780E+00 -6.485780772221E+00
 -6.500066134515E+00 -6.512053191396E+00 -6.521901467065E+00 -6.529776677559E+00
 -6.535850514748E+00 -6.540300364552E+00 -6.543308954148E+00 -6.545063923180E+00
 -6.545757314470E+00 -6.545584980243E+00 -6.544745900645E+00 -6.543441412183E+00
 -6.541874344814E+00 -6.540248067591E+00 -6.538765444201E+00 -6.537627701237E+00
 -6.537033213734E+00 -6.537176214271E+00 -6.538245433805E+00 -6.540422684293E+00
 -6.543881395043E+00 -6.548785116579E+00 -6.555286007515E+00 -6.563523321494E+00
 -6.573621912558E+00 -6.585690778378E+00 -6.599821661475E+00 -6.616087728892E+00
 -6.634542350692E+00 -6.655217997163E+00 -6.678125273626E+00 -6.703252110358E+00
 -6.730563123338E+00 -6.759999159339E+00 -6.791477036417E+00 -6.824889488132E+00