<?xml version="1.0" encoding="UTF-8" ?>
<psml version="1.1" energy_unit="hartree" length_unit="bohr"
 uuid="66518360-be62-11e7-6a04-293bfbad3b21"
 xmlns="http://esl.cecam.org/PSML/ns/1.1">
<provenance creator="ONCVPSP-3.3.0+psml-3.3.0-73 (scalar-relativistic)"
 date="2017-10-31">
<annotation action="semilocal-pseudopotential-generation"
 action-cont="projectors-generation" />
<input-file name="oncvpsp-input">
<![CDATA[# atsym z nc nv iexc psfile
O 8 1 2 4 upf
# n l f
1 0 2.0
2 0 2.0
2 1 4.0
# lmax
2
# l rc ep ncon nbas qcut
0 1.25 0.0 4 8 8.5
1 1.35 0.0 4 8 9.4
2 1.25 0.1 4 8 6.0
# lloc lpopt rc5 dvloc0
4 5 1.2 0.0
# l nproj debl
0 2 1.0
1 2 1.0
2 1 1.0
# icmod fcfact
3 4 1.5
# epsh1 epsh2 depsh
-12.0 12.0 0.02
# rlmax drl
6.0 0.01
 0
]]>
</input-file>
</provenance>
<pseudo-atom-spec atomic-label="O" atomic-number="8" z-pseudo="6"
 flavor="Hamann&apos;s oncvpsp" relativity="scalar" spin-dft="no"
 core-corrections="yes">
<annotation pseudo-energy="-15.7734255123" />
<exchange-correlation>
<annotation oncvpsp-xc-code="4" oncvpsp-xc-type="GGA -- Perdew-Burke-Ernzerhof" />
<libxc-info number-of-functionals="2">
<functional name="Perdew, Burke &amp; Ernzerhof (GGA)" type="exchange" id="101" />
<functional name="Perdew, Burke &amp; Ernzerhof (GGA)" type="correlation"
 id="130" />
</libxc-info>
</exchange-correlation>
<valence-configuration total-valence-charge="6">
<shell n="2" l="s" occupation="2" />
<shell n="2" l="p" occupation="4" />
</valence-configuration>
</pseudo-atom-spec>
<grid npts="457">
<annotation type="sampled from oncvpsp log grid"
 recipe="r(i:1..N) = r1*exp(a*(i-1)) + r=0; resampled"
 recipe-cont="r1: scale; a: step" scale="0.625000000000E-04"
 step="0.119285708653E-01" delta="0.500000000000E-02" rmax="44.1243818316" />
<grid-data>
  0.000000000000E+00  5.038585340028E-03  1.006417880273E-02  1.509787304249E-02
  2.010240735005E-02  2.521609353432E-02  3.051869836261E-02  3.563794632140E-02
  4.112243467717E-02  4.633230903787E-02  5.158323284976E-02  5.674827400167E-02
  6.243049193037E-02  6.786726449336E-02  7.290266753181E-02  7.831167165686E-02
  8.412199615352E-02  8.929191396799E-02  9.477956140646E-02  1.006044653004E-01
  1.067873525493E-01  1.120061500728E-01  1.174799950991E-01  1.232213520374E-01
  1.292432944444E-01  1.355595347938E-01  1.421844557004E-01  1.473647654853E-01
  1.527338132677E-01  1.582984754767E-01  1.640658790751E-01  1.700434106874E-01
  1.762387260605E-01  1.826597598689E-01  1.893147358765E-01  1.962121774698E-01
  2.033609185741E-01  2.107701149672E-01  2.158589486230E-01  2.210706470785E-01
  2.264081767816E-01  2.318745758018E-01  2.374729555600E-01  2.432065025990E-01
  2.490784803978E-01  2.550922312285E-01  2.612511780593E-01  2.675588265023E-01
  2.740187668094E-01  2.806346759152E-01  2.874103195305E-01  2.943495542853E-01
  3.014563299240E-01  3.087346915536E-01  3.161887819465E-01  3.238228438978E-01
  3.316412226409E-01  3.396483683203E-01  3.478488385251E-01  3.562473008824E-01
  3.648485357149E-01  3.736574387612E-01  3.826790239627E-01  3.919184263172E-01
  4.013809048022E-01  4.110718453678E-01  4.209967640023E-01  4.260487251704E-01
  4.311613098724E-01  4.363352455909E-01  4.415712685380E-01  4.468701237604E-01
  4.522325652455E-01  4.576593560285E-01  4.631512683008E-01  4.687090835204E-01
  4.743335925227E-01  4.800255956330E-01  4.857859027806E-01  4.916153336139E-01
  4.975147176173E-01  5.034848942287E-01  5.095267129594E-01  5.156410335150E-01
  5.218287259171E-01  5.280906706281E-01  5.344277586757E-01  5.408408917798E-01
  5.473309824811E-01  5.538989542709E-01  5.605457417222E-01  5.672722906228E-01
  5.740795581103E-01  5.809685128076E-01  5.879401349613E-01  5.949954165809E-01
  6.021353615798E-01  6.093609859188E-01  6.166733177498E-01  6.240733975628E-01
  6.315622783336E-01  6.391410256736E-01  6.468107179816E-01  6.545724465974E-01
  6.624273159566E-01  6.703764437481E-01  6.784209610731E-01  6.865620126059E-01
  6.948007567572E-01  7.031383658383E-01  7.115760262283E-01  7.201149385431E-01
  7.287563178056E-01  7.375013936193E-01  7.463514103427E-01  7.553076272668E-01
  7.643713187940E-01  7.735437746195E-01  7.828262999150E-01  7.922202155140E-01
  8.017268581001E-01  8.113475803973E-01  8.210837513621E-01  8.309367563784E-01
  8.409079974550E-01  8.509988934244E-01  8.612108801455E-01  8.715454107073E-01
  8.820039556358E-01  8.925880031034E-01  9.032990591406E-01  9.141386478503E-01
  9.251083116245E-01  9.362096113640E-01  9.474441267004E-01  9.588134562208E-01
  9.703192176954E-01  9.819630483078E-01  9.937466048875E-01  1.005671564146E+00
  1.017739622916E+00  1.029952498391E+00  1.042311928372E+00  1.054819671512E+00
  1.067477507570E+00  1.080287237661E+00  1.093250684513E+00  1.106369692727E+00
  1.119646129040E+00  1.133081882588E+00  1.146678865179E+00  1.160439011562E+00
  1.174364279700E+00  1.188456651057E+00  1.202718130869E+00  1.217150748440E+00
  1.231756557421E+00  1.246537636110E+00  1.261496087743E+00  1.276634040796E+00
  1.291953649286E+00  1.307457093077E+00  1.323146578194E+00  1.339024337133E+00
  1.355092629178E+00  1.371353740728E+00  1.387809985617E+00  1.404463705444E+00
  1.421317269910E+00  1.438373077149E+00  1.455633554074E+00  1.473101156723E+00
  1.490778370604E+00  1.508667711051E+00  1.526771723584E+00  1.545092984267E+00
  1.563634100078E+00  1.582397709279E+00  1.601386481790E+00  1.620603119572E+00
  1.640050357007E+00  1.659730961291E+00  1.679647732826E+00  1.699803505620E+00
  1.720201147688E+00  1.740843561460E+00  1.761733684197E+00  1.782874488408E+00
  1.804268982269E+00  1.825920210056E+00  1.847831252577E+00  1.870005227608E+00
  1.892445290339E+00  1.915154633823E+00  1.938136489429E+00  1.961394127302E+00
  1.984930856830E+00  2.008750027112E+00  2.032855027437E+00  2.057249287766E+00
  2.081936279219E+00  2.106919514570E+00  2.132202548745E+00  2.157788979330E+00
  2.183682447082E+00  2.209886636447E+00  2.236405276084E+00  2.263242139397E+00
  2.290401045070E+00  2.317885857611E+00  2.345700487902E+00  2.373848893757E+00
  2.402335080482E+00  2.431163101448E+00  2.460337058665E+00  2.489861103369E+00
  2.519739436609E+00  2.549976309849E+00  2.580576025567E+00  2.611542937874E+00
  2.642881453128E+00  2.674596030566E+00  2.706691182933E+00  2.739171477128E+00
  2.772041534853E+00  2.805306033271E+00  2.838969705671E+00  2.873037342139E+00
  2.907513790244E+00  2.942403955727E+00  2.977712803196E+00  3.013445356834E+00
  3.049606701116E+00  3.086201981530E+00  3.123236405308E+00  3.160715242172E+00
  3.198643825078E+00  3.237027550979E+00  3.275871881591E+00  3.315182344170E+00
  3.354964532300E+00  3.395224106687E+00  3.435966795968E+00  3.477198397519E+00
  3.518924778289E+00  3.561151875629E+00  3.603885698137E+00  3.647132326514E+00
  3.690897914432E+00  3.735188689406E+00  3.780010953678E+00  3.825371085123E+00
  3.871275538144E+00  3.917730844602E+00  3.964743614737E+00  4.012320538114E+00
  4.060468384571E+00  4.109194005186E+00  4.158504333248E+00  4.208406385247E+00
  4.258907261870E+00  4.310014149013E+00  4.361734318801E+00  4.414075130626E+00
  4.467044032194E+00  4.520648560580E+00  4.574896343307E+00  4.629795099427E+00
  4.685352640620E+00  4.741576872307E+00  4.798475794775E+00  4.856057504312E+00
  4.914330194364E+00  4.973302156697E+00  5.032981782577E+00  5.093377563968E+00
  5.154498094735E+00  5.216352071872E+00  5.278948296735E+00  5.342295676296E+00
  5.406403224411E+00  5.471280063104E+00  5.536935423861E+00  5.603378648948E+00
  5.670619192735E+00  5.738666623048E+00  5.807530622524E+00  5.877220989995E+00
  5.947747641875E+00  6.019120613577E+00  6.091350060940E+00  6.164446261671E+00
  6.238419616811E+00  6.313280652213E+00  6.389040020040E+00  6.465708500280E+00
  6.543297002283E+00  6.621816566311E+00  6.701278365107E+00  6.781693705488E+00
  6.863074029954E+00  6.945430918313E+00  7.028776089333E+00  7.113121402405E+00
  7.198478859234E+00  7.284860605545E+00  7.372278932811E+00  7.460746280005E+00
  7.550275235365E+00  7.640878538189E+00  7.732569080648E+00  7.825359909615E+00
  7.919264228531E+00  8.014295399273E+00  8.110466944064E+00  8.207792547393E+00
  8.306286057962E+00  8.405961490657E+00  8.506833028545E+00  8.608915024888E+00
  8.712222005187E+00  8.816768669249E+00  8.922569893280E+00  9.029640731999E+00
  9.137996420783E+00  9.247652377832E+00  9.358624206366E+00  9.470927696843E+00
  9.584578829205E+00  9.699593775155E+00  9.815988900457E+00  9.933780767263E+00
  1.005298613647E+01  1.017362197011E+01  1.029570543375E+01  1.041925389895E+01
  1.054428494574E+01  1.067081636509E+01  1.079886616147E+01  1.092845255541E+01
  1.105959398607E+01  1.119230911391E+01  1.132661682327E+01  1.146253622515E+01
  1.160008665985E+01  1.173928769977E+01  1.188015915217E+01  1.202272106200E+01
  1.216699371474E+01  1.231299763932E+01  1.246075361099E+01  1.261028265432E+01
  1.276160604617E+01  1.291474531873E+01  1.306972226255E+01  1.322655892970E+01
  1.338527763686E+01  1.354590096850E+01  1.370845178012E+01  1.387295320148E+01
  1.403942863990E+01  1.420790178358E+01  1.437839660498E+01  1.455093736424E+01
  1.472554861261E+01  1.490225519597E+01  1.508108225832E+01  1.526205524542E+01
  1.544519990836E+01  1.563054230726E+01  1.581810881495E+01  1.600792612073E+01
  1.620002123418E+01  1.639442148899E+01  1.659115454686E+01  1.679024840142E+01
  1.699173138224E+01  1.719563215882E+01  1.740197974473E+01  1.761080350166E+01
  1.782213314368E+01  1.803599874141E+01  1.825243072631E+01  1.847145989502E+01
  1.869311741376E+01  1.891743482273E+01  1.914444404060E+01  1.937417736909E+01
  1.960666749752E+01  1.984194750749E+01  2.008005087758E+01  2.032101148811E+01
  2.056486362596E+01  2.081164198948E+01  2.106138169335E+01  2.131411827367E+01
  2.156988769295E+01  2.182872634527E+01  2.209067106141E+01  2.235575911415E+01
  2.262402822352E+01  2.289551656220E+01  2.317026276095E+01  2.344830591408E+01
  2.372968558505E+01  2.401444181207E+01  2.430261511381E+01  2.459424649518E+01
  2.488937745312E+01  2.518804998256E+01  2.549030658235E+01  2.579619026134E+01
  2.610574454447E+01  2.641901347901E+01  2.673604164076E+01  2.705687414044E+01
  2.738155663013E+01  2.771013530969E+01  2.804265693341E+01  2.837916881661E+01
  2.871971884241E+01  2.906435546852E+01  2.941312773414E+01  2.976608526695E+01
  3.012327829015E+01  3.048475762963E+01  3.085057472119E+01  3.122078161784E+01
  3.159543099726E+01  3.197457616923E+01  3.235827108326E+01  3.274657033625E+01
  3.313952918029E+01  3.353720353045E+01  3.393964997282E+01  3.434692577249E+01
  3.475908888176E+01  3.517619794834E+01  3.559831232372E+01  3.602549207161E+01
  3.645779797647E+01  3.689529155219E+01  3.733803505081E+01  3.778609147142E+01
  3.823952456908E+01  3.869839886391E+01  3.916277965027E+01  3.963273300608E+01
  4.010832580215E+01  4.058962571178E+01  4.107670122032E+01  4.156962163496E+01
  4.206845709458E+01  4.257327857972E+01  4.308415792267E+01  4.360116781774E+01
  4.412438183156E+01
</grid-data>
</grid>
<valence-charge total-charge="6" is-unscreening-charge="yes"
 rescaled-to-z-pseudo="no">
<radfunc>
<data npts="457">
  3.259687805859E+00  3.262117546017E+00  3.269378535090E+00  3.281484673080E+00
  3.298300396302E+00  3.320383055892E+00  3.348480665647E+00  3.380590956527E+00
  3.420375328499E+00  3.463270032504E+00  3.511471197273E+00  3.563684168992E+00
  3.626538722207E+00  3.691894511339E+00  3.756888385352E+00  3.831387252931E+00
  3.916692659189E+00  3.997077171839E+00  4.086892257817E+00  4.187136085705E+00
  4.298883011833E+00  4.397331757772E+00  4.504494913205E+00  4.621016186021E+00
  4.747559323976E+00  4.884801959692E+00  5.033427489802E+00  5.152775475676E+00
  5.279188908593E+00  5.412938857953E+00  5.554282612023E+00  5.703458567796E+00
  5.860680355918E+00  6.026130134382E+00  6.199950987659E+00  6.382238373793E+00
  6.573030571520E+00  6.772298093537E+00  6.909801492881E+00  7.050970754774E+00
  7.195731485712E+00  7.343987482292E+00  7.495618793060E+00  7.650479712950E+00
  7.808396721599E+00  7.969166379700E+00  8.132553200662E+00  8.298287518356E+00
  8.466063375530E+00  8.635536461624E+00  8.806322133147E+00  8.977993554471E+00
  9.150080001823E+00  9.322065378295E+00  9.493386992804E+00  9.663434660936E+00
  9.831550190419E+00  9.997027318380E+00  1.015911217129E+01  1.031700432148E+01
  1.046985851577E+01  1.061678715230E+01  1.075686357989E+01  1.088912629085E+01
  1.101258407188E+01  1.112622216869E+01  1.122900950741E+01  1.127600949104E+01
  1.131990700015E+01  1.136057243837E+01  1.139787694218E+01  1.143169273286E+01
  1.146189348410E+01  1.148835470459E+01  1.151095413495E+01  1.152957215780E+01
  1.154409222014E+01  1.155440126667E+01  1.156039018260E+01  1.156195424453E+01
  1.155899357753E+01  1.155141361661E+01  1.153912557044E+01  1.152204688527E+01
  1.150010170648E+01  1.147322133536E+01  1.144134467850E+01  1.140441868688E+01
  1.136239878197E+01  1.131524926562E+01  1.126294371086E+01  1.120546533049E+01
  1.114280732015E+01  1.107497317291E+01  1.100197696213E+01  1.092384358956E+01
  1.084060899569E+01  1.075232032937E+01  1.065903607418E+01  1.056082612874E+01
  1.045777183891E+01  1.034996597963E+01  1.023751268467E+01  1.012052732292E+01
  9.999136320028E+00  9.873476924809E+00  9.743696919964E+00  9.609954277434E+00
  9.472416758859E+00  9.331261462265E+00  9.186674316477E+00  9.038849525276E+00
  8.887988963771E+00  8.734301529887E+00  8.578002454348E+00  8.419312572901E+00
  8.258457564920E+00  8.095667162857E+00  7.931174337291E+00  7.765214462572E+00
  7.598024468201E+00  7.429841981245E+00  7.260904465102E+00  7.091448359935E+00
  6.921708230011E+00  6.751915923050E+00  6.582299746461E+00  6.413083665147E+00
  6.244486525196E+00  6.076721307518E+00  5.909994415077E+00  5.744504997040E+00
  5.580444312803E+00  5.417995138511E+00  5.257331218386E+00  5.098616762949E+00
  4.942005996015E+00  4.787642752240E+00  4.635660127003E+00  4.486180180437E+00
  4.339313697615E+00  4.195160007145E+00  4.053806860711E+00  3.915330376474E+00
  3.779795049623E+00  3.647253833649E+00  3.517748296219E+00  3.391308853582E+00
  3.267955087340E+00  3.147696147033E+00  3.030531241220E+00  2.916450218627E+00
  2.805434239277E+00  2.697456533484E+00  2.592483243986E+00  2.490474343475E+00
  2.391384616410E+00  2.295164690335E+00  2.201762098209E+00  2.111122596689E+00
  2.023192472287E+00  1.937921270339E+00  1.855262777558E+00  1.775175124897E+00
  1.697621197135E+00  1.622568113544E+00  1.549984502808E+00  1.479836787349E+00
  1.412088744199E+00  1.346702307420E+00  1.283637442565E+00  1.222852361270E+00
  1.164303681312E+00  1.107946587956E+00  1.053734991743E+00  1.001621682227E+00
  9.515584774113E-01  9.034963685913E-01  8.573856603976E-01  8.131761058144E-01
  7.708170360125E-01  7.302574848468E-01  6.914463079036E-01  6.543322960068E-01
  6.188642831190E-01  5.849912485967E-01  5.526624137828E-01  5.218273329424E-01
  4.924359785644E-01  4.644388210764E-01  4.377869030325E-01  4.124319078529E-01
  3.883262232088E-01  3.654229991581E-01  3.436762011516E-01  3.230406580373E-01
  3.034721052040E-01  2.849272230086E-01  2.673636706434E-01  2.507401156023E-01
  2.350162589105E-01  2.201528562889E-01  2.061117354221E-01  1.928558095067E-01
  1.803490872555E-01  1.685566795326E-01  1.574448027980E-01  1.469807795382E-01
  1.371330358570E-01  1.278710964028E-01  1.191655768041E-01  1.109881737847E-01
  1.033116531263E-01  9.610983564508E-02  8.935758134371E-02  8.303077190015E-02
  7.710629164738E-02  7.156200719710E-02  6.637674585525E-02  6.153027297273E-02
  5.700326837085E-02  5.277730197537E-02  4.883480878830E-02  4.515906332152E-02
  4.173415361036E-02  3.854495491985E-02  3.557710325051E-02  3.281696874442E-02
  3.025162908629E-02  2.786884298813E-02  2.565702383977E-02  2.360521360129E-02
  2.170305700726E-02  1.994077614633E-02  1.830914547388E-02  1.679946730911E-02
  1.540354786241E-02  1.411367383297E-02  1.292258961118E-02  1.182347511500E-02
  1.080992428455E-02  9.875924254294E-03  9.015835217540E-03  8.224370993939E-03
  7.496580306426E-03  6.827828770510E-03  6.213781595274E-03  5.650386992405E-03
  5.133860286651E-03  4.660668718604E-03  4.227516928385E-03  3.831333106810E-03
  3.469255798905E-03  3.138621343111E-03  2.836951928302E-03  2.561944249742E-03
  2.311458744304E-03  2.083509384696E-03  1.876254012042E-03  1.687985185967E-03
  1.517121531241E-03  1.362199560143E-03  1.221865949891E-03  1.094870254800E-03
  9.800580332478E-04  8.763643699623E-04  7.828077747439E-04  6.984844392719E-04
  6.225628343008E-04  5.542786301857E-04  4.929299243412E-04  4.378727599095E-04
  3.885169205721E-04  3.443219871024E-04  3.047936418954E-04  2.694802083382E-04
  2.379694124863E-04  2.098853550960E-04  1.848856826151E-04  1.626589462712E-04
  1.429221388987E-04  1.254183996321E-04  1.099148770497E-04  9.620074178666E-05
  8.408534005480E-05  7.339647989518E-05  6.397884237059E-05  5.569251026004E-05
  4.841160716186E-05  4.202304023958E-05  3.642534016027E-05  3.152759207761E-05
  2.724845180418E-05  2.351524159876E-05  2.026312026676E-05  1.743432253502E-05
  1.497746291712E-05  1.284689953233E-05  1.100215358025E-05  9.407380405544E-06
  8.030888311093E-06  6.844701495625E-06  5.824163702011E-06  4.947579365434E-06
  4.195889246663E-06  3.552377724507E-06  3.002409103089E-06  2.533190464056E-06
  2.133558760962E-06  1.793790012978E-06  1.505428607694E-06  1.261134868164E-06
  1.054549177499E-06  8.801710853012E-07  7.332519441679E-07  6.096997414258E-07
  5.059949013725E-07  4.191159366904E-07  3.464739245762E-07  2.858548736557E-07
  2.353691321410E-07  1.934070661489E-07  1.586003098786E-07  1.297879566625E-07
  1.059871220290E-07  8.636736708720E-08  7.022852302576E-08  5.698150557420E-08
  4.613175215658E-08  3.726495443936E-08  3.003479528633E-08  2.415243203363E-08
  1.937749772922E-08  1.551041877684E-08  1.238587151085E-08  9.867221820814E-09
  7.841811250800E-09  6.216970211767E-09  4.916654253615E-09  3.878612918405E-09
  3.052012702517E-09  2.395446244526E-09  1.875269169071E-09  1.464214185761E-09
  1.140239186859E-09  8.855723189357E-10  6.859224231441E-10  5.298279386776E-10
  4.081214281012E-10  3.134903874402E-10  2.401180165167E-10  1.833902073810E-10
  1.396572156915E-10  1.060403604748E-10  8.027569530862E-11  6.058794706874E-11
  4.558916087762E-11  3.419745159465E-11  2.557206917185E-11  1.906166021591E-11
  1.416313127202E-11  1.048927879769E-11  7.742825526487E-12  5.696382594350E-12
  0.000000000000E+00  0.000000000000E+00  0.000000000000E+00  0.000000000000E+00
  0.000000000000E+00  0.000000000000E+00  0.000000000000E+00  0.000000000000E+00
  0.000000000000E+00  0.000000000000E+00  0.000000000000E+00  0.000000000000E+00
  0.000000000000E+00  0.000000000000E+00  0.000000000000E+00  0.000000000000E+00
  0.000000000000E+00  0.000000000000E+00  0.000000000000E+00  0.000000000000E+00
  0.000000000000E+00  0.000000000000E+00  0.000000000000E+00  0.000000000000E+00
  0.000000000000E+00  0.000000000000E+00  0.000000000000E+00  0.000000000000E+00
  0.000000000000E+00  0.000000000000E+00  0.000000000000E+00  0.000000000000E+00
  0.000000000000E+00  0.000000000000E+00  0.000000000000E+00  0.000000000000E+00
  0.000000000000E+00  0.000000000000E+00  0.000000000000E+00  0.000000000000E+00
  0.000000000000E+00  0.000000000000E+00  0.000000000000E+00  0.000000000000E+00
  0.000000000000E+00  0.000000000000E+00  0.000000000000E+00  0.000000000000E+00
  0.000000000000E+00  0.000000000000E+00  0.000000000000E+00  0.000000000000E+00
  0.000000000000E+00  0.000000000000E+00  0.000000000000E+00  0.000000000000E+00
  0.000000000000E+00  0.000000000000E+00  0.000000000000E+00  0.000000000000E+00
  0.000000000000E+00  0.000000000000E+00  0.000000000000E+00  0.000000000000E+00
  0.000000000000E+00  0.000000000000E+00  0.000000000000E+00  0.000000000000E+00
  0.000000000000E+00  0.000000000000E+00  0.000000000000E+00  0.000000000000E+00
  0.000000000000E+00  0.000000000000E+00  0.000000000000E+00  0.000000000000E+00
  0.000000000000E+00  0.000000000000E+00  0.000000000000E+00  0.000000000000E+00
  0.000000000000E+00  0.000000000000E+00  0.000000000000E+00  0.000000000000E+00
  0.000000000000E+00  0.000000000000E+00  0.000000000000E+00  0.000000000000E+00
  0.000000000000E+00  0.000000000000E+00  0.000000000000E+00  0.000000000000E+00
  0.000000000000E+00
</data>
</radfunc>
</valence-charge>
<pseudocore-charge matching-radius="0.378141328026"
 number-of-continuous-derivatives="4">
<annotation model-charge-form="Teter function with specified parameters" />
<radfunc>
<data npts="290">
  4.599166134395E+01  4.598019646675E+01  4.594593596571E+01  4.588881726853E+01
  4.580948489798E+01  4.570531661019E+01  4.557279452090E+01  4.542137385522E+01
  4.523380499345E+01  4.503162138726E+01  4.480448651909E+01  4.455851898201E+01
  4.426251879155E+01  4.395485220555E+01  4.364900192684E+01  4.329855905104E+01
  4.289745836020E+01  4.251966467633E+01  4.209773954728E+01  4.162705588364E+01
  4.110264278178E+01  4.064087583247E+01  4.013848191032E+01  3.959249876298E+01
  3.899987659968E+01  3.835750599508E+01  3.766225409118E+01  3.710423830881E+01
  3.651343959553E+01  3.588861284149E+01  3.522857228088E+01  3.453221256388E+01
  3.379853258516E+01  3.302666219671E+01  3.221589188844E+01  3.136570545867E+01
  3.047581561637E+01  2.954620235452E+01  2.890451993731E+01  2.824547374111E+01
  2.756930913609E+01  2.687635252913E+01  2.616701728737E+01  2.544180961765E+01
  2.470133432422E+01  2.394630035557E+01  2.317752603914E+01  2.239594388979E+01
  2.160260486563E+01  2.079868193177E+01  1.998547278069E+01  1.916440154647E+01
  1.833701934042E+01  1.750500342773E+01  1.667015485953E+01  1.583439437333E+01
  1.499975637714E+01  1.416838084069E+01  1.334250293109E+01  1.252444025168E+01
  1.171657757228E+01  1.092134897728E+01  1.014121740686E+01  9.378651624835E+00
  8.636100716499E+00  7.915966299472E+00  7.220572720763E+00  6.882851263423E+00
  6.552135611722E+00  6.228680380837E+00  5.912729278018E+00  5.604514062189E+00
  5.304253511141E+00  5.012152402811E+00  4.728400517474E+00  4.453171668069E+00
  4.186622766160E+00  3.928892931325E+00  3.680102651963E+00  3.440353005699E+00
  3.209724947633E+00  2.988278674716E+00  2.776053074476E+00  2.573065266151E+00
  2.379310242051E+00  2.194760616606E+00  2.019366490107E+00  1.853055433554E+00
  1.695732600335E+00  1.547280969641E+00  1.407561725575E+00  1.276414774844E+00
  1.153659404764E+00  1.039095081972E+00  9.325023908738E-01  8.336441093399E-01
  7.422664175733E-01  6.581002344532E-01  5.808626739413E-01  5.102586124305E-01
  4.459823561984E-01  3.877193964359E-01  3.351482376923E-01  2.879422840367E-01
  2.457717658202E-01  2.083056886678E-01  1.752137852670E-01  1.461684496913E-01
  1.208466334318E-01  9.893168204016E-02  8.011509134497E-02  6.409816261069E-02
  5.059353678348E-02  3.932658912737E-02  3.003666709768E-02  2.247815622595E-02
  1.642136108612E-02  1.165319105348E-02  7.977643519613E-03  5.216080444549E-03
  3.207297553558E-03  1.807389054686E-03  8.894143875140E-04  3.428771292141E-04
  7.302969007072E-05  2.073209822016E-08  5.790524497978E-05  1.935398184351E-04
  3.653877696741E-04  5.422603377410E-04  7.020210746308E-04  8.302807933776E-04
  9.191099426418E-04  9.657940548459E-04  9.716559747087E-04  9.409659576386E-04
  8.799575004845E-04  7.959630248095E-04  6.966793940516E-04  5.895688511680E-04
  4.813964701417E-04  3.779007917604E-04  2.835901342628E-04  2.016533019606E-04
  1.339702168024E-04  8.120550523836E-05  4.296639278944E-05  1.800546205420E-05
  4.448944693194E-06  3.222603382835E-08  2.326076269836E-06  8.939672229163E-06
  1.768958372903E-05  2.672737948796E-05  3.462214620216E-05  4.039778629036E-05
  4.352824392909E-05  4.389660307835E-05  4.172613678374E-05  3.749274294645E-05
  3.182871464448E-05  2.542746407398E-05  1.895771542320E-05  1.299393278587E-05
  7.967536365132E-06  4.141003124439E-06  1.604484537642E-06  2.923384849047E-07
  1.517272969715E-08  5.017945537140E-07  1.444951273342E-06  2.544950244620E-06
  3.546106653972E-06  4.262351986590E-06  4.590056172070E-06  4.507946284884E-06
  4.065709763811E-06  3.364236761178E-06  2.531319815189E-06  1.696896479818E-06
  9.715837023017E-07  4.313901002100E-07  1.102579929134E-07  6.880360977601E-10
  0.000000000000E+00  0.000000000000E+00  0.000000000000E+00  0.000000000000E+00
  0.000000000000E+00  0.000000000000E+00  0.000000000000E+00  0.000000000000E+00
  0.000000000000E+00  0.000000000000E+00  0.000000000000E+00  0.000000000000E+00
  0.000000000000E+00  0.000000000000E+00  0.000000000000E+00  0.000000000000E+00
  0.000000000000E+00  0.000000000000E+00  0.000000000000E+00  0.000000000000E+00
  0.000000000000E+00  0.000000000000E+00  0.000000000000E+00  0.000000000000E+00
  0.000000000000E+00  0.000000000000E+00  0.000000000000E+00  0.000000000000E+00
  0.000000000000E+00  0.000000000000E+00  0.000000000000E+00  0.000000000000E+00
  0.000000000000E+00  0.000000000000E+00  0.000000000000E+00  0.000000000000E+00
  0.000000000000E+00  0.000000000000E+00  0.000000000000E+00  0.000000000000E+00
  0.000000000000E+00  0.000000000000E+00  0.000000000000E+00  0.000000000000E+00
  0.000000000000E+00  0.000000000000E+00  0.000000000000E+00  0.000000000000E+00
  0.000000000000E+00  0.000000000000E+00  0.000000000000E+00  0.000000000000E+00
  0.000000000000E+00  0.000000000000E+00  0.000000000000E+00  0.000000000000E+00
  0.000000000000E+00  0.000000000000E+00  0.000000000000E+00  0.000000000000E+00
  0.000000000000E+00  0.000000000000E+00  0.000000000000E+00  0.000000000000E+00
  0.000000000000E+00  0.000000000000E+00  0.000000000000E+00  0.000000000000E+00
  0.000000000000E+00  0.000000000000E+00  0.000000000000E+00  0.000000000000E+00
  0.000000000000E+00  0.000000000000E+00  0.000000000000E+00  0.000000000000E+00
  0.000000000000E+00  0.000000000000E+00  0.000000000000E+00  0.000000000000E+00
  0.000000000000E+00  0.000000000000E+00  0.000000000000E+00  0.000000000000E+00
  0.000000000000E+00  0.000000000000E+00  0.000000000000E+00  0.000000000000E+00
  0.000000000000E+00  0.000000000000E+00  0.000000000000E+00  0.000000000000E+00
  0.000000000000E+00  0.000000000000E+00  0.000000000000E+00  0.000000000000E+00
  0.000000000000E+00  0.000000000000E+00  0.000000000000E+00  0.000000000000E+00
  0.000000000000E+00  0.000000000000E+00  0.000000000000E+00  0.000000000000E+00
  0.000000000000E+00  0.000000000000E+00
</data>
</radfunc>
</pseudocore-charge>
<semilocal-potentials set="scalar_relativistic">
<slps n="2" l="s" rc="1.26149608774" eref="-0.880571743193">
<radfunc>
<data npts="290">
 -3.738168626342E+00 -3.738623380102E+00 -3.739984108280E+00 -3.742258953917E+00
 -3.745431438288E+00 -3.749619823615E+00 -3.754985236829E+00 -3.761165995257E+00
 -3.768895644935E+00 -3.777317313229E+00 -3.786887731126E+00 -3.797380235715E+00
 -3.810181213295E+00 -3.823684642586E+00 -3.837304488060E+00 -3.853145790229E+00
 -3.871579586310E+00 -3.889231403852E+00 -3.909269734763E+00 -3.932019257652E+00
 -3.957846030343E+00 -3.980997771710E+00 -4.006613950128E+00 -4.034948285538E+00
 -4.066276269595E+00 -4.100895735550E+00 -4.139127079245E+00 -4.170376232295E+00
 -4.204002000280E+00 -4.240163467456E+00 -4.279025724377E+00 -4.320759209442E+00
 -4.365538849181E+00 -4.413542966464E+00 -4.464951922193E+00 -4.519946452301E+00
 -4.578705657559E+00 -4.641404600026E+00 -4.685476068595E+00 -4.731420943356E+00
 -4.779284171917E+00 -4.829107640526E+00 -4.880929567795E+00 -4.934783840439E+00
 -4.990699287921E+00 -5.048698893419E+00 -5.108798938931E+00 -5.171008082515E+00
 -5.235326366707E+00 -5.301744157303E+00 -5.370241013096E+00 -5.440784487094E+00
 -5.513328861283E+00 -5.587813818059E+00 -5.664163050927E+00 -5.742282819753E+00
 -5.822060455950E+00 -5.903362825195E+00 -5.986034758272E+00 -6.069897465500E+00
 -6.154746958894E+00 -6.240352519374E+00 -6.326455267166E+00 -6.412766923050E+00
 -6.498968888427E+00 -6.584711822561E+00 -6.669615952070E+00 -6.711626765923E+00
 -6.753272402093E+00 -6.794497642442E+00 -6.835245873532E+00 -6.875459265652E+00
 -6.915078983126E+00 -6.954045426025E+00 -6.992298502178E+00 -7.029777927154E+00
 -7.066423548082E+00 -7.102175685633E+00 -7.136975486595E+00 -7.170765277958E+00
 -7.203488911946E+00 -7.235092090437E+00 -7.265522656970E+00 -7.294730844793E+00
 -7.322669470650E+00 -7.349294066289E+00 -7.374562942486E+00 -7.398437184300E+00
 -7.420880580312E+00 -7.441859493078E+00 -7.461342682012E+00 -7.479301093352E+00
 -7.495707634088E+00 -7.510536948161E+00 -7.523765211915E+00 -7.535369964746E+00
 -7.545329986724E+00 -7.553625230967E+00 -7.560236813239E+00 -7.565147056025E+00
 -7.568339579178E+00 -7.569799424797E+00 -7.569513200474E+00 -7.567469222690E+00
 -7.563657641082E+00 -7.558070524471E+00 -7.550701891130E+00 -7.541547668246E+00
 -7.530605569240E+00 -7.517874881816E+00 -7.503356164574E+00 -7.487050855031E+00
 -7.468960796980E+00 -7.449087699892E+00 -7.427432547182E+00 -7.403994973629E+00
 -7.378772634653E+00 -7.351760591714E+00 -7.322950738624E+00 -7.292331293210E+00
 -7.259886377851E+00 -7.225595710831E+00 -7.189434428721E+00 -7.151373058122E+00
 -7.111377653283E+00 -7.069410114475E+00 -7.025428700500E+00 -6.979388747437E+00
 -6.931243604426E+00 -6.880945795994E+00 -6.828448418763E+00 -6.773706778410E+00
 -6.716680269943E+00 -6.657334500835E+00 -6.595643651914E+00 -6.531593065019E+00
 -6.465182039270E+00 -6.396426809092E+00 -6.325363667012E+00 -6.252052182631E+00
 -6.176578456158E+00 -6.099058330807E+00 -6.019640473301E+00 -5.938509216359E+00
 -5.855887041780E+00 -5.772036568449E+00 -5.687261897111E+00 -5.601909154274E+00
 -5.516366072305E+00 -5.431060443113E+00 -5.346457290278E+00 -5.263054620552E+00
 -5.181377641765E+00 -5.101971371477E+00 -5.025391609953E+00 -4.952194312587E+00
 -4.882923469902E+00 -4.818097333333E+00 -4.758197712705E+00 -4.701302593415E+00