<?xml version="1.0" encoding="UTF-8" ?>
<psml version="1.1" energy_unit="hartree" length_unit="bohr"
 uuid="1ef42940-be6d-11e7-7d20-d382efef0f92"
 xmlns="http://esl.cecam.org/PSML/ns/1.1">
<provenance creator="ONCVPSP-3.3.0+psml-3.3.0-73 (scalar-relativistic)"
 date="2017-10-31">
<annotation action="semilocal-pseudopotential-generation"
 action-cont="projectors-generation" />
<input-file name="oncvpsp-input">
<![CDATA[# atsym z nc nv iexc psfile
Re 75 10 4 4 upf
# n l f
1 0 2.0
2 0 2.0
2 1 6.0
3 0 2.0
3 1 6.0
3 2 10.0
4 0 2.0
4 1 6.0
4 2 10.0
4 3 14.0
5 0 2.0
5 1 6.0
5 2 5.0
6 0 2.0
# lmax
3
# l rc ep ncon nbas qcut
0 1.6 0.0 4 8 7.4
1 1.6 0.0 4 8 7.8
2 1.6 0.0 4 9 7.4
3 2.0 0.15 4 8 6.0
# lloc lpopt rc5 dvloc0
4 5 1.6 0.0
# l nproj debl
0 2 1.0
1 2 2.0
2 2 1.8
3 2 2.9
# icmod fcfact rcfact
3 4.0 1.44
# epsh1 epsh2 depsh
-12.0 12.0 0.02
# rlmax drl
6.0 0.01
 0
]]>
</input-file>
</provenance>
<pseudo-atom-spec atomic-label="Re" atomic-number="75" z-pseudo="15"
 flavor="Hamann&apos;s oncvpsp" relativity="scalar" spin-dft="no"
 core-corrections="yes">
<annotation pseudo-energy="-79.9142372878" />
<exchange-correlation>
<annotation oncvpsp-xc-code="4" oncvpsp-xc-type="GGA -- Perdew-Burke-Ernzerhof" />
<libxc-info number-of-functionals="2">
<functional name="Perdew, Burke &amp; Ernzerhof (GGA)" type="exchange" id="101" />
<functional name="Perdew, Burke &amp; Ernzerhof (GGA)" type="correlation"
 id="130" />
</libxc-info>
</exchange-correlation>
<valence-configuration total-valence-charge="15">
<shell n="5" l="s" occupation="2" />
<shell n="5" l="p" occupation="6" />
<shell n="5" l="d" occupation="5" />
<shell n="6" l="s" occupation="2" />
</valence-configuration>
</pseudo-atom-spec>
<grid npts="457">
<annotation type="sampled from oncvpsp log grid"
 recipe="r(i:1..N) = r1*exp(a*(i-1)) + r=0; resampled"
 recipe-cont="r1: scale; a: step" scale="0.666666666667E-05"
 step="0.119285708653E-01" delta="0.500000000000E-02" rmax="44.3244860336" />
<grid-data>
  0.000000000000E+00  5.001418319608E-03  1.010981988336E-02  1.516634194138E-02
  2.019357182683E-02  2.533044859306E-02  3.065710074992E-02  3.579956451334E-02
  4.081909588935E-02  4.599053971972E-02  5.120273020085E-02  5.632967153367E-02
  6.196997469948E-02  6.736664302225E-02  7.323328134463E-02  7.866681531939E-02
  8.450348965482E-02  8.969685306186E-02  9.520938699770E-02  1.010607068480E-01
  1.072716335089E-01  1.125140982946E-01  1.180127672242E-01  1.237801612332E-01
  1.298294131669E-01  1.361742976849E-01  1.428292626275E-01  1.480330651325E-01
  1.534264615625E-01  1.590163595311E-01  1.648099183218E-01  1.708145580576E-01
  1.770379692044E-01  1.834881224200E-01  1.901732787635E-01  1.971020002748E-01
  2.042831609411E-01  2.117259580618E-01  2.168378695933E-01  2.220732031167E-01
  2.274349385328E-01  2.329261276887E-01  2.385498961156E-01  2.443094448074E-01
  2.502080520429E-01  2.562490752514E-01  2.624359529243E-01  2.687722065717E-01
  2.752614427271E-01  2.819073550003E-01  2.887137261795E-01  2.956844303843E-01
  3.028234352715E-01  3.101348042927E-01  3.176226990076E-01  3.252913814524E-01
  3.331452165662E-01  3.411886746750E-01  3.494263340363E-01  3.578628834453E-01
  3.665031249032E-01  3.753519763509E-01  3.844144744679E-01  3.936957775394E-01
  4.032011683924E-01  4.129360574020E-01  4.229059855719E-01  4.279808573988E-01
  4.331166276876E-01  4.383140272198E-01  4.435737955465E-01  4.488966810930E-01
  4.542834412662E-01  4.597348425613E-01  4.652516606721E-01  4.708346806001E-01
  4.764846967673E-01  4.822025131286E-01  4.879889432861E-01  4.938448106055E-01
  4.997709483328E-01  5.057681997128E-01  5.118374181093E-01  5.179794671267E-01
  5.241952207322E-01  5.304855633810E-01  5.368513901415E-01  5.432936068232E-01
  5.498131301051E-01  5.564108876664E-01  5.630878183184E-01  5.698448721382E-01
  5.766830106038E-01  5.836032067311E-01  5.906064452119E-01  5.976937225544E-01
  6.048660472251E-01  6.121244397918E-01  6.194699330693E-01  6.269035722661E-01
  6.344264151333E-01  6.420395321149E-01  6.497440065003E-01  6.575409345783E-01
  6.654314257932E-01  6.734166029027E-01  6.814976021376E-01  6.896755733632E-01
  6.979516802436E-01  7.063271004065E-01  7.148030256114E-01  7.233806619187E-01
  7.320612298617E-01  7.408459646201E-01  7.497361161955E-01  7.587329495899E-01
  7.678377449849E-01  7.770517979248E-01  7.863764194999E-01  7.958129365339E-01
  8.053626917723E-01  8.150270440735E-01  8.248073686024E-01  8.347050570256E-01
  8.447215177099E-01  8.548581759225E-01  8.651164740335E-01  8.754978717219E-01
  8.860038461826E-01  8.966358923368E-01  9.073955230448E-01  9.182842693214E-01
  9.293036805532E-01  9.404553247199E-01  9.517407886165E-01  9.631616780799E-01
  9.747196182169E-01  9.864162536355E-01  9.982532486791E-01  1.010232287663E+00
  1.022355075115E+00  1.034623336017E+00  1.047038816049E+00  1.059603281841E+00
  1.072318521223E+00  1.085186343478E+00  1.098208579600E+00  1.111387082555E+00
  1.124723727546E+00  1.138220412276E+00  1.151879057224E+00  1.165701605910E+00
  1.179690025181E+00  1.193846305483E+00  1.208172461149E+00  1.222670530683E+00
  1.237342577051E+00  1.252190687976E+00  1.267216976231E+00  1.282423579946E+00
  1.297812662906E+00  1.313386414861E+00  1.329147051839E+00  1.345096816461E+00
  1.361237978258E+00  1.377572833998E+00  1.394103708005E+00  1.410832952502E+00
  1.427762947932E+00  1.444896103307E+00  1.462234856546E+00  1.479781674825E+00
  1.497539054923E+00  1.515509523582E+00  1.533695637865E+00  1.552099985519E+00
  1.570725185346E+00  1.589573887570E+00  1.608648774221E+00  1.627952559511E+00
  1.647487990225E+00  1.667257846108E+00  1.687264940261E+00  1.707512119544E+00
  1.728002264979E+00  1.748738292159E+00  1.769723151665E+00  1.790959829485E+00
  1.812451347438E+00  1.834200763608E+00  1.856211172771E+00  1.878485706844E+00
  1.901027535326E+00  1.923839865750E+00  1.946925944139E+00  1.970289055469E+00
  1.993932524135E+00  2.017859714424E+00  2.042074030997E+00  2.066578919369E+00
  2.091377866402E+00  2.116474400799E+00  2.141872093608E+00  2.167574558731E+00
  2.193585453436E+00  2.219908478877E+00  2.246547380624E+00  2.273505949191E+00
  2.300788020582E+00  2.328397476829E+00  2.356338246551E+00  2.384614305509E+00
  2.413229677175E+00  2.442188433301E+00  2.471494694501E+00  2.501152630835E+00
  2.531166462405E+00  2.561540459954E+00  2.592278945473E+00  2.623386292819E+00
  2.654866928333E+00  2.686725331473E+00  2.718966035451E+00  2.751593627876E+00
  2.784612751411E+00  2.818028104427E+00  2.851844441681E+00  2.886066574981E+00
  2.920699373881E+00  2.955747766367E+00  2.991216739564E+00  3.027111340438E+00
  3.063436676524E+00  3.100197916642E+00  3.137400291642E+00  3.175049095141E+00
  3.213149684283E+00  3.251707480494E+00  3.290727970260E+00  3.330216705903E+00
  3.370179306374E+00  3.410621458051E+00  3.451548915547E+00  3.492967502534E+00
  3.534883112564E+00  3.577301709915E+00  3.620229330434E+00  3.663672082399E+00
  3.707636147388E+00  3.752127781157E+00  3.797153314531E+00  3.842719154305E+00
  3.888831784157E+00  3.935497765566E+00  3.982723738753E+00  4.030516423618E+00
  4.078882620702E+00  4.127829212150E+00  4.177363162696E+00  4.227491520648E+00
  4.278221418896E+00  4.329560075923E+00  4.381514796834E+00  4.434092974396E+00
  4.487302090089E+00  4.541149715170E+00  4.595643511752E+00  4.650791233893E+00
  4.706600728699E+00  4.763079937444E+00  4.820236896693E+00  4.878079739454E+00
  4.936616696327E+00  4.995856096683E+00  5.055806369843E+00  5.116476046281E+00
  5.177873758837E+00  5.240008243943E+00  5.302888342870E+00  5.366523002984E+00
  5.430921279020E+00  5.496092334368E+00  5.562045442381E+00  5.628789987689E+00
  5.696335467542E+00  5.764691493152E+00  5.833867791070E+00  5.903874204563E+00
  5.974720695018E+00  6.046417343358E+00  6.118974351478E+00  6.192402043696E+00
  6.266710868220E+00  6.341911398639E+00  6.418014335423E+00  6.495030507448E+00
  6.572970873537E+00  6.651846524019E+00  6.731668682308E+00  6.812448706495E+00
  6.894198090973E+00  6.976928468065E+00  7.060651609682E+00  7.145379428998E+00
  7.231123982146E+00  7.317897469932E+00  7.405712239571E+00  7.494580786446E+00
  7.584515755883E+00  7.675529944954E+00  7.767636304293E+00  7.860847939945E+00
  7.955178115224E+00  8.050640252607E+00  8.147247935638E+00  8.245014910866E+00
  8.343955089796E+00  8.444082550873E+00  8.545411541484E+00  8.647956479982E+00
  8.751731957742E+00  8.856752741234E+00  8.963033774129E+00  9.070590179419E+00
  9.179437261572E+00  9.289590508711E+00  9.401065594815E+00  9.513878381953E+00
  9.628044922536E+00  9.743581461607E+00  9.860504439146E+00  9.978830492416E+00
  1.009857645832E+01  1.021975937582E+01  1.034239648833E+01  1.046650524619E+01
  1.059210330915E+01  1.071920854886E+01  1.084783905145E+01  1.097801312006E+01
  1.110974927750E+01  1.124306626883E+01  1.137798306406E+01  1.151451886083E+01
  1.165269308716E+01  1.179252540420E+01  1.193403570905E+01  1.207724413756E+01
  1.222217106721E+01  1.236883712002E+01  1.251726316546E+01  1.266747032345E+01
  1.281947996733E+01  1.297331372694E+01  1.312899349166E+01  1.328654141356E+01
  1.344597991052E+01  1.360733166945E+01  1.377061964948E+01  1.393586708527E+01
  1.410309749030E+01  1.427233466018E+01  1.444360267610E+01  1.461692590822E+01
  1.479232901912E+01  1.496983696734E+01  1.514947501095E+01  1.533126871108E+01
  1.551524393562E+01  1.570142686284E+01  1.588984398520E+01  1.608052211302E+01
  1.627348837838E+01  1.646877023892E+01  1.666639548179E+01  1.686639222757E+01
  1.706878893430E+01  1.727361440151E+01  1.748089777433E+01  1.769066854762E+01
  1.790295657019E+01  1.811779204903E+01  1.833520555362E+01  1.855522802026E+01
  1.877789075651E+01  1.900322544559E+01  1.923126415093E+01  1.946203932074E+01
  1.969558379259E+01  1.993193079810E+01  2.017111396768E+01  2.041316733529E+01
  2.065812534332E+01  2.090602284744E+01  2.115689512161E+01  2.141077786307E+01
  2.166770719742E+01  2.192771968379E+01  2.219085232000E+01  2.245714254784E+01
  2.272662825841E+01  2.299934779751E+01  2.327533997108E+01  2.355464405073E+01
  2.383729977934E+01  2.412334737670E+01  2.441282754522E+01  2.470578147576E+01
  2.500225085347E+01  2.530227786371E+01  2.560590519807E+01  2.591317606045E+01
  2.622413417318E+01  2.653882378325E+01  2.685728966865E+01  2.717957714468E+01
  2.750573207041E+01  2.783580085526E+01  2.816983046552E+01  2.850786843111E+01
  2.884996285228E+01  2.919616240651E+01  2.954651635539E+01  2.990107455165E+01
  3.025988744627E+01  3.062300609563E+01  3.099048216877E+01  3.136236795480E+01
  3.173871637026E+01  3.211958096670E+01  3.250501593830E+01  3.289507612956E+01
  3.328981704311E+01  3.368929484763E+01  3.409356638580E+01  3.450268918243E+01
  3.491672145262E+01  3.533572211005E+01  3.575975077537E+01  3.618886778468E+01
  3.662313419809E+01  3.706261180847E+01  3.750736315017E+01  3.795745150798E+01
  3.841294092607E+01  3.887389621718E+01  3.934038297179E+01  3.981246756745E+01
  4.029021717826E+01  4.077369978440E+01  4.126298418181E+01  4.175813999199E+01
  4.225923767190E+01  4.276634852396E+01  4.327954470625E+01  4.379889924272E+01
  4.432448603364E+01
</grid-data>
</grid>
<valence-charge total-charge="15" is-unscreening-charge="yes"
 rescaled-to-z-pseudo="no">
<radfunc>
<data npts="457">
  2.036183734762E+00  2.036954157570E+00  2.039331632637E+00  2.043267793897E+00
  2.048741967067E+00  2.055942689376E+00  2.065124473722E+00  2.075644682689E+00
  2.087481525233E+00  2.101295835795E+00  2.116880700769E+00  2.133836910964E+00
  2.154352403208E+00  2.175805472472E+00  2.201147525168E+00  2.226493829713E+00
  2.255726484095E+00  2.283480931208E+00  2.314734344081E+00  2.349924852994E+00
  2.389544494532E+00  2.424798100081E+00  2.463551858151E+00  2.506149071406E+00
  2.552965620028E+00  2.604412753743E+00  2.660940036014E+00  2.706963039058E+00
  2.756342296425E+00  2.809316097878E+00  2.866138367408E+00  2.927079420815E+00
  2.992426698877E+00  3.062485458153E+00  3.137579396985E+00  3.218051188901E+00
  3.304262889195E+00  3.396596172819E+00  3.461749951672E+00  3.529926108249E+00
  3.601252116939E+00  3.675859106755E+00  3.753881712208E+00  3.835457876265E+00
  3.920728598365E+00  4.009837619653E+00  4.102931036753E+00  4.200156834444E+00
  4.301664326644E+00  4.407603494060E+00  4.518124205785E+00  4.633375310975E+00
  4.753503585660E+00  4.878652518540E+00  5.008960918577E+00  5.144561326109E+00
  5.285578208323E+00  5.432125919132E+00  5.584306402992E+00  5.742206621955E+00
  5.905895685426E+00  6.075421662798E+00  6.250808060417E+00  6.432049946455E+00
  6.619109710273E+00  6.811912446993E+00  7.010340963461E+00  7.111615389172E+00
  7.214230408716E+00  7.318157028508E+00  7.423362540785E+00  7.529810326255E+00
  7.637459652285E+00  7.746265467046E+00  7.856178190103E+00  7.967143500029E+00
  8.079102119668E+00  8.191989599812E+00  8.305736102074E+00  8.420266181915E+00
  8.535498572815E+00  8.651345972736E+00  8.767714834109E+00  8.884505158699E+00
  9.001610298834E+00  9.118916766596E+00  9.236304052710E+00  9.353644456998E+00
  9.470802932387E+00  9.587636944619E+00  9.703996349922E+00  9.819723293053E+00
  9.934652128232E+00  1.004860936565E+01  1.016141364630E+01  1.027287574809E+01
  1.038279862613E+01  1.049097749038E+01  1.059719992380E+01  1.070124604412E+01
  1.080288871265E+01  1.090189379325E+01  1.099802046478E+01  1.109102159015E+01
  1.118064414521E+01  1.126662971032E+01  1.134871502744E+01  1.142663262543E+01
  1.150011151578E+01  1.156887796079E+01  1.163265631579E+01  1.169116994665E+01
  1.174414222308E+01  1.179129758784E+01  1.183236270122E+01  1.186706765944E+01
  1.189514728483E+01  1.191634248462E+01  1.193040167446E+01  1.193708226154E+01
  1.193615218120E+01  1.192739147976E+01  1.191059393503E+01  1.188556870490E+01
  1.185214199306E+01  1.181015871953E+01  1.175948418273E+01  1.170000569855E+01
  1.163163420047E+01  1.155430578432E+01  1.146798317987E+01  1.137265713097E+01
  1.126834766549E+01  1.115510523573E+01  1.103301171023E+01  1.090218119798E+01
  1.076276068663E+01  1.061493047726E+01  1.045890439942E+01  1.029492979201E+01
  1.012328723725E+01  9.944290037764E+00  9.758283429082E+00  9.565643523198E+00
  9.366775981965E+00  9.162114422577E+00  8.952118561000E+00  8.737272102894E+00
  8.518080395132E+00  8.295067854545E+00  8.068775193724E+00  7.839756466666E+00
  7.608575959528E+00  7.375804953815E+00  7.142018390770E+00  6.907791466687E+00
  6.673696189188E+00  6.440297924300E+00  6.208151963488E+00  5.977800138699E+00
  5.749767512134E+00  5.524559165978E+00  5.302657115889E+00  5.084517370829E+00
  4.870567160940E+00  4.661202354807E+00  4.456785087644E+00  4.257641622740E+00
  4.064060469840E+00  3.876290785893E+00  3.694541085545E+00  3.518978290626E+00
  3.349727149249E+00  3.186870055686E+00  3.030447301471E+00  2.880457785752E+00
  2.736860208632E+00  2.599574764645E+00  2.468485344769E+00  2.343443658024E+00
  2.224279373299E+00  2.110813455529E+00  2.002860245880E+00  1.900228726108E+00
  1.802724145592E+00  1.710149366248E+00  1.622306117202E+00  1.538996137532E+00
  1.460022210504E+00  1.385189092260E+00  1.314304338362E+00  1.247179032102E+00
  1.183628418944E+00  1.123472451748E+00  1.066536251765E+00  1.012650490525E+00
  9.616516978789E-01  9.133825015375E-01  8.676918034128E-01  8.244348980513E-01
  7.834735383391E-01  7.446759535356E-01  7.079168245276E-01  6.730772210110E-01
  6.400445051295E-01  6.087122056568E-01  5.789798671632E-01  5.507528775448E-01
  5.239422776846E-01  4.984645565110E-01  4.742414345113E-01  4.511996385212E-01
  4.292706703682E-01  4.083905717171E-01  3.884996872376E-01  3.695424279943E-01
  3.514670367516E-01  3.342253566791E-01  3.177726047551E-01  3.020671509817E-01
  2.870703043514E-01  2.727461063481E-01  2.590611326130E-01  2.459843032678E-01
  2.334867022627E-01  2.215414059999E-01  2.101233213793E-01  1.992090333194E-01
  1.887766617255E-01  1.788057278027E-01  1.692770295483E-01  1.601725262064E-01
  1.514752314190E-01  1.431691147734E-01  1.352390114149E-01  1.276705393685E-01
  1.204500242008E-01  1.135644306371E-01  1.070013007470E-01  1.007486983064E-01
  9.479515894931E-02  8.912964572492E-02  8.374150968769E-02  7.862045515544E-02
  7.375650928453E-02  6.913999562424E-02  6.476151132616E-02  6.061190769919E-02
  5.668227381452E-02  5.296392287875E-02  4.944838110619E-02  4.612737883404E-02
  4.299284363509E-02  4.003689518794E-02  3.725184168941E-02  3.463017758624E-02
  3.216458242173E-02  2.984792060031E-02  2.767324188301E-02  2.563378243691E-02
  2.372296627296E-02  2.193440691848E-02  2.026190918348E-02  1.869947089350E-02
  1.724128447633E-02  1.588173830453E-02  1.461541771091E-02  1.343710560955E-02
  1.234178266936E-02  1.132462700221E-02  1.038101334080E-02  9.506511694559E-03
  8.696885483167E-03  7.948089157958E-03  7.256265330164E-03  6.617741432844E-03
  6.029025949504E-03  5.486804247376E-03  4.987934056942E-03  4.529440641756E-03
  4.108511703907E-03  3.722492070851E-03  3.368878208740E-03  3.045312606112E-03
  2.749578069827E-03  2.479591972685E-03  2.233400489257E-03  2.009172853278E-03
  1.805195666562E-03  1.619867285891E-03  1.451692310801E-03  1.299276191743E-03
  1.161319974711E-03  1.036615195305E-03  9.240389322446E-04  8.225490276426E-04
  7.311794792354E-04  6.490360065281E-04  5.752917947777E-04  5.091834108873E-04
  4.500068966381E-04  3.971140322793E-04  3.499087677014E-04  3.078438189947E-04
  2.704174257272E-04  2.371702647449E-04  2.076825163267E-04  1.815710784240E-04
  1.584869247485E-04  1.381126025241E-04  1.201598657853E-04  1.043674401611E-04
  9.049891513437E-05  7.834075979512E-05  6.770045811845E-05  5.840475978931E-05
  5.029804257246E-05  4.324078218790E-05  3.710812560627E-05  3.178856362834E-05
  2.718269856390E-05  2.320210278147E-05  1.976826386649E-05  1.681161210407E-05
  1.427062599700E-05  1.209101154150E-05  1.022495101333E-05  8.630417067218E-06
  7.270548020228E-06  6.113080277539E-06  5.129833962512E-06  4.296247933065E-06
  3.590960499871E-06  2.995432307496E-06  2.493607994991E-06  2.071613415636E-06
  1.717485364296E-06  1.420930933334E-06  1.173113792146E-06  9.664648595582E-07
  7.945150107554E-07  6.517476299062E-07  5.334689847181E-07  4.356945589635E-07
  3.550496325628E-07  2.886825454568E-07  2.341892207099E-07  1.895476536932E-07
  1.530611975630E-07  1.233095904823E-07  9.910677713226E-08  7.946467612667E-08
  6.356213616652E-08  5.071840739394E-08  4.037053073858E-08  3.205411743274E-08
  2.538705368423E-08  2.005572213339E-08  1.580338259112E-08  1.242040007159E-08
  9.736048706822E-09  7.611656163788E-09  5.934885070121E-09  4.614976067374E-09
  3.578801809446E-09  2.767602846605E-09  2.134295199066E-09  1.641255823560E-09
  1.258506384284E-09  9.622280066087E-10  7.335502469258E-10  5.575665628659E-10
  4.225363027174E-10  3.192398201721E-10  2.404589115284E-10  1.805595017349E-10
  1.351574923048E-10  1.008520332811E-10  7.501328536693E-11  5.561407772230E-11
  4.109681198726E-11  3.026857466384E-11  2.221875059560E-11  1.625452504570E-11
  1.185055941525E-11  8.609858874062E-12  6.233447033586E-12  4.496946886930E-12
  3.232558452598E-12  2.315238550415E-12  1.652140824357E-12  1.174576077252E-12
  8.319137806273E-13  5.869731471510E-13  4.125531096372E-13  2.888289085241E-13
  1.497480801650E-13  1.036909580201E-13  7.150364849091E-14  4.910229649886E-14
  3.357685553885E-14  2.286235245703E-14  1.549966364758E-14  1.046216610117E-14
  7.030661099691E-15  4.703518876101E-15  3.132409029263E-15  2.076535120247E-15
  1.370192013706E-15  8.998719789423E-16  5.881832912330E-16  3.826066455644E-16
  2.476709768588E-16  1.595346820639E-16  1.022508163814E-16  6.520548250089E-17
  4.136954534936E-17  2.611139269110E-17  1.639475334209E-17  1.023948376668E-17
  6.360951632558E-18  3.930149457165E-18  2.414964075144E-18  1.475700660096E-18
  8.966911116508E-19  5.417701999955E-19  3.254507829565E-19  1.943674041007E-19
  1.153982009717E-19  6.810536886439E-20  3.995206330706E-20  2.329384056133E-20
  1.349755460925E-20  7.772288242833E-21  4.447232380484E-21  2.528394154763E-21
  1.428171182496E-21  8.014240556505E-22  4.467419737508E-22  2.473595135516E-22
  1.360324938739E-22  7.429557174357E-23  4.029523588835E-23  0.000000000000E+00
  0.000000000000E+00  0.000000000000E+00  0.000000000000E+00  0.000000000000E+00
  0.000000000000E+00  0.000000000000E+00  0.000000000000E+00  0.000000000000E+00
  0.000000000000E+00  0.000000000000E+00  0.000000000000E+00  0.000000000000E+00
  0.000000000000E+00
</data>
</radfunc>
</valence-charge>
<pseudocore-charge matching-radius="0.907395523045"
 number-of-continuous-derivatives="4">
<annotation model-charge-form="Teter function with specified parameters" />
<radfunc>
<data npts="290">
  4.788248202032E+01  4.788026561115E+01  4.787342633410E+01  4.786210465072E+01
  4.784636217887E+01  4.782565991487E+01  4.779927087147E+01  4.776904722996E+01
  4.773505643101E+01  4.769540766446E+01  4.765070362524E+01  4.760209763589E+01
  4.754333256114E+01  4.748193280044E+01  4.740946909477E+01  4.733706464685E+01
  4.725364621829E+01  4.717453213726E+01  4.708554355188E+01  4.698546916708E+01
  4.687295479506E+01  4.677297590960E+01  4.666321679417E+01  4.654274608315E+01
  4.641054904243E+01  4.626552123908E+01  4.610646198113E+01  4.597717921188E+01
  4.583868246032E+01  4.569034513224E+01  4.553150264746E+01  4.536145086596E+01
  4.517944457370E+01  4.498469605640E+01  4.477637379425E+01  4.455360131621E+01
  4.431545625905E+01  4.406096968266E+01  4.388173360586E+01  4.369447148956E+01
  4.349886150189E+01  4.329457267959E+01  4.308126507511E+01  4.285858996057E+01
  4.262619009491E+01  4.238370006092E+01  4.213074667963E+01  4.186694950974E+01
  4.159192144048E+01  4.130526938666E+01  4.100659509527E+01  4.069549607344E+01
  4.037156664795E+01  4.003439916719E+01  3.968358535644E+01  3.931871783814E+01
  3.893939182857E+01  3.854520702311E+01  3.813576968164E+01  3.771069492610E+01
  3.726960926158E+01  3.681215333200E+01  3.633798492071E+01  3.584678220527E+01
  3.533824727445E+01  3.481210991364E+01  3.426813166312E+01  3.398938742911E+01
  3.370611015053E+01  3.341828092511E+01  3.312588369641E+01  3.282890541235E+01
  3.252733618751E+01  3.222116946947E+01  3.191040220864E+01  3.159503503177E+01
  3.127507241867E+01  3.095052288214E+01  3.062139915066E+01  3.028771835375E+01
  2.994950220956E+01  2.960677721437E+01  2.925957483370E+01  2.890793169448E+01
  2.855188977795E+01  2.819149661275E+01  2.782680546759E+01  2.745787554306E+01
  2.708477216183E+01  2.670756695665E+01  2.632633805535E+01  2.594117026218E+01
  2.555215523452E+01  2.515939165429E+01  2.476298539291E+01  2.436304966901E+01
  2.395970519781E+01  2.355308033105E+01  2.314331118640E+01  2.273054176515E+01
  2.231492405692E+01  2.189661813017E+01  2.147579220711E+01  2.105262272181E+01
  2.062729435979E+01  2.020000007805E+01  1.977094110377E+01  1.934032691024E+01
  1.890837516871E+01  1.847531167427E+01  1.804137024463E+01  1.760679258993E+01
  1.717182815229E+01  1.673673391356E+01  1.630177416969E+01  1.586722027059E+01
  1.543335032381E+01  1.500044886107E+01  1.456880646624E+01  1.413871936388E+01
  1.371048896728E+01  1.328442138532E+01  1.286082688736E+01  1.244001932591E+01
  1.202231551674E+01  1.160803457633E+01  1.119749721711E+01  1.079102500083E+01
  1.038893955087E+01  9.991561724664E+00  9.599210747655E+00  9.212203310573E+00
  8.830852632199E+00  8.455467490224E+00  8.086351223141E+00  7.723800706603E+00
  7.368105308070E+00  7.019545824027E+00  6.678393404521E+00  6.344908470192E+00
  6.019339627436E+00  5.701922587772E+00  5.392879097922E+00  5.092415887509E+00
  4.800723641656E+00  4.517976006144E+00  4.244328633055E+00  3.979918275120E+00
  3.724861937180E+00  3.479256093308E+00  3.243175978210E+00  3.016674961511E+00
  2.799784013417E+00  2.592511270076E+00  2.394841706599E+00  2.206736925353E+00
  2.028135066557E+00  1.858950847579E+00  1.699075736538E+00  1.548378264936E+00
  1.406704482966E+00  1.273878560023E+00  1.149703531641E+00  1.033962192675E+00
  9.264181350700E-01  8.268169269318E-01  7.348874279538E-01  6.503432345193E-01
  5.728842460114E-01  5.021983420809E-01  4.379631588374E-01  3.798479501960E-01
  3.275155189456E-01  2.806242005549E-01  2.388298813206E-01  2.017880312405E-01
  1.691557309805E-01  1.405936715599E-01  1.157681049110E-01  9.435272333446E-02
  7.603044607867E-02  6.049509185811E-02  4.745291709908E-02  3.662400107684E-02
  2.774346088526E-02  2.056248135037E-02  1.484914754534E-02  1.038907045568E-02
  6.985799540397E-03  4.461019384103E-03  2.654531274166E-03  1.424024291228E-03
  6.446442882765E-04  2.083728613561E-04  2.323198748845E-05  1.233332257245E-05
  1.127941138262E-04  2.745441909502E-04  4.590504675387E-04  6.379867299619E-04
  7.918771500454E-04  9.087418836799E-04  9.827722848957E-04  1.013061673368E-03
  1.002415268911E-03  9.562599033619E-04  8.816705205840E-04  7.865263883664E-04
  6.788055055346E-04  5.660210480433E-04  4.547990288958E-04  3.505918268855E-04
  2.575180477823E-04  1.783154905849E-04  1.143909562249E-04  6.594838666969E-05
  3.217545506724E-05  1.146829795075E-05  1.674597889949E-06  3.366493995866E-07
  4.918282808762E-06  1.300244373214E-05  2.244965247263E-05  3.151128913957E-05
  3.889543781655E-05  4.378664266804E-05  4.582415660160E-05  4.504590144291E-05
  4.180725136534E-05  3.668479667656E-05  3.037540483229E-05  2.360020003150E-05
  1.702163002642E-05  1.117973809882E-05  6.451317497167E-06  3.033034170191E-06
  9.471103145823E-07  6.600134018189E-08  1.508706899378E-07  8.977114049679E-07
  1.984748368659E-06  3.115267684868E-06  4.051165991469E-06  4.634128347747E-06
  4.793212304555E-06  4.539495255877E-06  3.950093394088E-06  3.145079339977E-06
  2.261469463933E-06  1.428460444335E-06  7.474978703370E-07  2.796748091983E-07
  4.157244008347E-08  0.000000000000E+00  0.000000000000E+00  0.000000000000E+00
  0.000000000000E+00  0.000000000000E+00  0.000000000000E+00  0.000000000000E+00
  0.000000000000E+00  0.000000000000E+00  0.000000000000E+00  0.000000000000E+00
  0.000000000000E+00  0.000000000000E+00  0.000000000000E+00  0.000000000000E+00
  0.000000000000E+00  0.000000000000E+00  0.000000000000E+00  0.000000000000E+00
  0.000000000000E+00  0.000000000000E+00  0.000000000000E+00  0.000000000000E+00
  0.000000000000E+00  0.000000000000E+00  0.000000000000E+00  0.000000000000E+00
  0.000000000000E+00  0.000000000000E+00  0.000000000000E+00  0.000000000000E+00
  0.000000000000E+00  0.000000000000E+00  0.000000000000E+00  0.000000000000E+00
  0.000000000000E+00  0.000000000000E+00
</data>
</radfunc>
</pseudocore-charge>
<semilocal-potentials set="scalar_relativistic">
<slps n="5" l="s" rc="1.60864877422" eref="-3.13294124257">
<radfunc>
<data npts="290">
 -6.998127798302E+00 -6.999431225548E+00 -7.003452124233E+00 -7.010104527425E+00
 -7.019346721617E+00 -7.031486986383E+00 -7.046939485384E+00 -7.064606314288E+00
 -7.084435642076E+00 -7.107512934603E+00 -7.133464717559E+00 -7.161600315690E+00
 -7.195503788766E+00 -7.230796106419E+00 -7.272276361157E+00 -7.313538217665E+00
 -7.360849533385E+00 -7.405496299531E+00 -7.455457562414E+00 -7.511318790781E+00
 -7.573717715845E+00 -7.628806806558E+00 -7.688900466645E+00 -7.754399686106E+00
 -7.825726849823E+00 -7.903324623413E+00 -7.987654239681E+00 -8.055605875127E+00
 -8.127818764846E+00 -8.204502379899E+00 -8.285868175238E+00 -8.372128232595E+00
 -8.463493681287E+00 -8.560172880222E+00 -8.662369345551E+00 -8.770279410200E+00
 -8.884089603890E+00 -9.003973745480E+00 -9.087349659679E+00 -9.173537835757E+00
 -9.262576104775E+00 -9.354497463709E+00 -9.449329536245E+00 -9.547094011312E+00
 -9.647806060871E+00 -9.751473738828E+00 -9.858097363250E+00 -9.967668884392E+00
 -1.008017124139E+01 -1.019557771082E+01 -1.031385125051E+01 -1.043494384261E+01
 -1.055879583973E+01 -1.068533531864E+01 -1.081447744598E+01 -1.094612386071E+01
 -1.108016207801E+01 -1.121646491964E+01 -1.135488997555E+01 -1.149527910153E+01
 -1.163745795781E+01 -1.178123559308E+01 -1.192640407825E+01 -1.207273819429E+01
 -1.221999517791E+01 -1.236791452862E+01 -1.251621788068E+01 -1.259042166660E+01
 -1.266460894274E+01 -1.273873987350E+01 -1.281277350820E+01 -1.288666778542E+01
 -1.296037953866E+01 -1.303386450301E+01 -1.310707732329E+01 -1.317997156330E+01
 -1.325249971640E+01 -1.332461321742E+01 -1.339626245589E+01 -1.346739679062E+01
 -1.353796456565E+01 -1.360791312767E+01 -1.367718884488E+01 -1.374573712727E+01
 -1.381350244854E+01 -1.388042836952E+01 -1.394645756321E+01 -1.401153184156E+01
 -1.407559218389E+01 -1.413857876716E+01 -1.420043099811E+01 -1.426108754722E+01
 -1.432048638480E+01 -1.437856481905E+01 -1.443525953630E+01 -1.449050664351E+01
 -1.454424171301E+01 -1.459639982970E+01 -1.464691564071E+01 -1.469572340759E+01
 -1.474275706117E+01 -1.478795025906E+01 -1.483123644599E+01 -1.487254891691E+01
 -1.491182088289E+01 -1.494898553998E+01 -1.498397614079E+01 -1.501672606898E+01
 -1.504716891642E+01 -1.507523856301E+01 -1.510086925894E+01 -1.512399570933E+01
 -1.514455316074E+01 -1.516247748954E+01 -1.517770529151E+01 -1.519017397237E+01
 -1.519982183864E+01 -1.520658818824E+01 -1.521041340018E+01 -1.521123902252E+01
 -1.520900785780E+01 -1.520366404497E+01 -1.519515313696E+01 -1.518342217273E+01
 -1.516841974280E+01 -1.515009604727E+01 -1.512840294514E+01 -1.510329399403E+01
 -1.507472447940E+01 -1.504265143250E+01 -1.500703363653E+01 -1.496783162062E+01
 -1.492500764183E+01 -1.487852565550E+01 -1.482835127496E+01 -1.477445172218E+01
 -1.471679577156E+01 -1.465535368993E+01 -1.459009717684E+01 -1.452099931003E+01
 -1.444803450256E+01 -1.437117847892E+01 -1.429040827951E+01 -1.420570230395E+01
 -1.411704040602E+01 -1.402440405460E+01 -1.392777657757E+01 -1.382714350746E+01
 -1.372249305076E+01 -1.361381670480E+01 -1.350111004958E+01 -1.338437374407E+01