<?xml version="1.0" encoding="UTF-8" ?>
<psml version="1.1" energy_unit="hartree" length_unit="bohr"
 uuid="76a94680-be6c-11e7-62e2-fbe9de89ff58"
 xmlns="http://esl.cecam.org/PSML/ns/1.1">
<provenance creator="ONCVPSP-3.3.0+psml-3.3.0-73 (scalar-relativistic)"
 date="2017-10-31">
<annotation action="semilocal-pseudopotential-generation"
 action-cont="projectors-generation" />
<input-file name="oncvpsp-input">
<![CDATA[# atsym z nc nv iexc psfile
Ag 47 6 4 4 upf
# n l f
1 0 2.0
2 0 2.0
2 1 6.0
3 0 2.0
3 1 6.0
3 2 10.0
4 0 2.0
4 1 6.0
4 2 10.0
5 0 1.0
# lmax
2
# l rc ep ncon nbas qcut
0 1.4 0.0 4 8 9.2
1 1.45 0.0 4 8 9.2
2 1.6 0.0 4 8 9.2
# lloc lpopt rc5 dvloc0
4 5 1.4 0.0
# l nproj debl
0 2 1.0
1 2 1.0
2 2 1.0
# icmod fcfact
3 7.0 1.24
# epsh1 epsh2 depsh
-12.0 12.0 0.02
# rlmax drl
6.0 0.01
 0
]]>
</input-file>
</provenance>
<pseudo-atom-spec atomic-label="Ag" atomic-number="47" z-pseudo="19"
 flavor="Hamann&apos;s oncvpsp" relativity="scalar" spin-dft="no"
 core-corrections="yes">
<annotation pseudo-energy="-147.309810775" />
<exchange-correlation>
<annotation oncvpsp-xc-code="4" oncvpsp-xc-type="GGA -- Perdew-Burke-Ernzerhof" />
<libxc-info number-of-functionals="2">
<functional name="Perdew, Burke &amp; Ernzerhof (GGA)" type="exchange" id="101" />
<functional name="Perdew, Burke &amp; Ernzerhof (GGA)" type="correlation"
 id="130" />
</libxc-info>
</exchange-correlation>
<valence-configuration total-valence-charge="19">
<shell n="4" l="s" occupation="2" />
<shell n="4" l="p" occupation="6" />
<shell n="4" l="d" occupation="10" />
<shell n="5" l="s" occupation="1" />
</valence-configuration>
</pseudo-atom-spec>
<grid npts="458">
<annotation type="sampled from oncvpsp log grid"
 recipe="r(i:1..N) = r1*exp(a*(i-1)) + r=0; resampled"
 recipe-cont="r1: scale; a: step" scale="0.106382978723E-04"
 step="0.119285708653E-01" delta="0.500000000000E-02" rmax="44.4188311520" />
<grid-data>
  0.000000000000E+00  5.012063889261E-03  1.013133873758E-02  1.519862365413E-02
  2.023655404941E-02  2.538436470997E-02  3.072235470001E-02  3.587576424974E-02
  4.090597974922E-02  4.608843105027E-02  5.131171573174E-02  5.644956981122E-02
  6.210187841956E-02  6.751003360562E-02  7.251893194389E-02  7.789946485591E-02
  8.367920572152E-02  8.882191079441E-02  9.428067306739E-02  1.000749165892E-01
  1.062252591596E-01  1.114165866549E-01  1.168616191670E-01  1.225727554967E-01
  1.285630003858E-01  1.348459941300E-01  1.414360436389E-01  1.465890859822E-01
  1.519298728687E-01  1.574652445318E-01  1.632022904206E-01  1.691483582787E-01
  1.753110635559E-01  1.816982991609E-01  1.883182455706E-01  1.951793813071E-01
  2.022904937969E-01  2.096606906249E-01  2.147227383393E-01  2.199070041338E-01
  2.252164388416E-01  2.306540645410E-01  2.362229762752E-01  2.419263438144E-01
  2.477674134595E-01  2.537495098901E-01  2.598760380568E-01  2.661504851197E-01
  2.725764224324E-01  2.791575075756E-01  2.858974864385E-01  2.928001953511E-01
  2.998695632677E-01  3.071096140032E-01  3.145244685237E-01  3.221183472917E-01
  3.298955726687E-01  3.378605713752E-01  3.460178770105E-01  3.543721326331E-01
  3.629280934034E-01  3.716906292905E-01  3.806647278441E-01  3.898554970332E-01
  3.992681681535E-01  4.089080988054E-01  4.187807759430E-01  4.238061452543E-01
  4.288918189973E-01  4.340385208253E-01  4.392469830752E-01  4.445179468721E-01
  4.498521622346E-01  4.552503881814E-01  4.607133928396E-01  4.662419535537E-01
  4.718368569963E-01  4.774988992803E-01  4.832288860716E-01  4.890276327045E-01
  4.948959642969E-01  5.008347158685E-01  5.068447324589E-01  5.129268692484E-01
  5.190819916794E-01  5.253109755796E-01  5.316147072865E-01  5.379940837739E-01
  5.444500127792E-01  5.509834129326E-01  5.575952138878E-01  5.642863564544E-01
  5.710577927319E-01  5.779104862447E-01  5.848454120796E-01  5.918635570246E-01
  5.989659197089E-01  6.061535107454E-01  6.134273528743E-01  6.207884811088E-01
  6.282379428821E-01  6.357767981967E-01  6.434061197750E-01  6.511269932123E-01
  6.589405171309E-01  6.668478033365E-01  6.748499769765E-01  6.829481767002E-01
  6.911435548206E-01  6.994372774785E-01  7.078305248082E-01  7.163244911059E-01
  7.249203849992E-01  7.336194296192E-01  7.424228627746E-01  7.513319371279E-01
  7.603479203734E-01  7.694720954179E-01  7.787057605629E-01  7.880502296897E-01
  7.975068324460E-01  8.070769144353E-01  8.167618374085E-01  8.265629794574E-01
  8.364817352109E-01  8.465195160335E-01  8.566777502259E-01  8.669578832286E-01
  8.773613778273E-01  8.878897143612E-01  8.985443909336E-01  9.093269236248E-01
  9.202388467083E-01  9.312817128688E-01  9.424570934232E-01  9.537665785443E-01
  9.652117774868E-01  9.767943188166E-01  9.885158506424E-01  1.000378040850E+00
  1.012382577340E+00  1.024531168268E+00  1.036825542288E+00  1.049267448795E+00
  1.061858658181E+00  1.074600962079E+00  1.087496173624E+00  1.100546127707E+00
  1.113752681240E+00  1.127117713415E+00  1.140643125976E+00  1.154330843487E+00
  1.168182813609E+00  1.182201007372E+00  1.196387419461E+00  1.210744068494E+00
  1.225272997316E+00  1.239976273284E+00  1.254855988564E+00  1.269914260426E+00
  1.285153231551E+00  1.300575070330E+00  1.316181971174E+00  1.331976154828E+00
  1.347959868686E+00  1.364135387110E+00  1.380505011756E+00  1.397071071897E+00
  1.413835924759E+00  1.430801955857E+00  1.447971579327E+00  1.465347238279E+00
  1.482931405138E+00  1.500726582000E+00  1.518735300984E+00  1.536960124596E+00
  1.555403646091E+00  1.574068489844E+00  1.592957311722E+00  1.612072799463E+00
  1.631417673056E+00  1.650994685133E+00  1.670806621354E+00  1.690856300811E+00
  1.711146576420E+00  1.731680335337E+00  1.752460499362E+00  1.773490025354E+00
  1.794771905658E+00  1.816309168526E+00  1.838104878548E+00  1.860162137091E+00
  1.882484082736E+00  1.905073891729E+00  1.927934778430E+00  1.951069995771E+00
  1.974482835720E+00  1.998176629749E+00  2.022154749306E+00  2.046420606297E+00
  2.070977653573E+00  2.095829385416E+00  2.120979338041E+00  2.146431090097E+00
  2.172188263178E+00  2.198254522336E+00  2.224633576605E+00  2.251329179524E+00
  2.278345129678E+00  2.305685271234E+00  2.333353494489E+00  2.361353736423E+00
  2.389689981260E+00  2.418366261035E+00  2.447386656167E+00  2.476755296041E+00
  2.506476359594E+00  2.536554075909E+00  2.566992724820E+00  2.597796637518E+00
  2.628970197168E+00  2.660517839534E+00  2.692444053609E+00  2.724753382252E+00
  2.757450422839E+00  2.790539827913E+00  2.824026305848E+00  2.857914621518E+00
  2.892209596976E+00  2.926916112140E+00  2.962039105486E+00  2.997583574751E+00
  3.033554577648E+00  3.069957232580E+00  3.106796719371E+00  3.144078280004E+00
  3.181807219364E+00  3.219988905996E+00  3.258628772868E+00  3.297732318142E+00
  3.337305105960E+00  3.377352767232E+00  3.417881000438E+00  3.458895572444E+00
  3.500402319313E+00  3.542407147145E+00  3.584916032911E+00  3.627935025305E+00
  3.671470245609E+00  3.715527888556E+00  3.760114223219E+00  3.805235593898E+00
  3.850898421025E+00  3.897109202077E+00  3.943874512502E+00  3.991201006652E+00
  4.039095418732E+00  4.087564563756E+00  4.136615338521E+00  4.186254722584E+00
  4.236489779255E+00  4.287327656606E+00  4.338775588485E+00  4.390840895547E+00
  4.443530986293E+00  4.496853358129E+00  4.550815598426E+00  4.605425385608E+00
  4.660690490235E+00  4.716618776118E+00  4.773218201431E+00  4.830496819848E+00
  4.888462781686E+00  4.947124335067E+00  5.006489827088E+00  5.066567705013E+00
  5.127366517473E+00  5.188894915682E+00  5.251161654671E+00  5.314175594527E+00
  5.377945701661E+00  5.442481050081E+00  5.507790822682E+00  5.573884312554E+00
  5.640770924305E+00  5.708460175396E+00  5.776961697501E+00  5.846285237871E+00
  5.916440660726E+00  5.987437948654E+00  6.059287204038E+00  6.131998650487E+00
  6.205582634292E+00  6.280049625904E+00  6.355410221415E+00  6.431675144072E+00
  6.508855245801E+00  6.586961508750E+00  6.666005046855E+00  6.745997107417E+00
  6.826949072706E+00  6.908872461579E+00  6.991778931118E+00  7.075680278291E+00
  7.160588441631E+00  7.246515502930E+00  7.333473688966E+00  7.421475373233E+00
  7.510533077712E+00  7.600659474644E+00  7.691867388340E+00  7.784169797000E+00
  7.877579834564E+00  7.972110792579E+00  8.067776122090E+00  8.164589435555E+00
  8.262564508782E+00  8.361715282887E+00  8.462055866282E+00  8.563600536677E+00
  8.666363743117E+00  8.770360108035E+00  8.875604429331E+00  8.982111682483E+00
  9.089897022673E+00  9.198975786945E+00  9.309363496388E+00  9.421075858345E+00
  9.534128768645E+00  9.648538313869E+00  9.764320773635E+00  9.881492622919E+00
  1.000007053439E+01  1.012007138081E+01  1.024151223738E+01  1.036441038422E+01
  1.048878330884E+01  1.061464870854E+01  1.074202449304E+01  1.087092878696E+01
  1.100137993240E+01  1.113339649159E+01  1.126699724949E+01  1.140220121649E+01
  1.153902763108E+01  1.167749596266E+01  1.181762591421E+01  1.195943742518E+01
  1.210295067428E+01  1.224818608237E+01  1.239516431536E+01  1.254390628715E+01
  1.269443316259E+01  1.284676636054E+01  1.300092755687E+01  1.315693868755E+01
  1.331482195180E+01  1.347459981522E+01  1.363629501301E+01  1.379993055316E+01
  1.396552971980E+01  1.413311607644E+01  1.430271346936E+01  1.447434603099E+01
  1.464803818336E+01  1.482381464156E+01  1.500170041726E+01  1.518172082227E+01
  1.536390147213E+01  1.554826828980E+01  1.573484750928E+01  1.592366567939E+01
  1.611474966754E+01  1.630812666355E+01  1.650382418351E+01  1.670187007371E+01
  1.690229251460E+01  1.710512002477E+01  1.731038146507E+01  1.751810604265E+01
  1.772832331516E+01  1.794106319495E+01  1.815635595329E+01  1.837423222473E+01
  1.859472301142E+01  1.881785968756E+01  1.904367400381E+01  1.927219809186E+01
  1.950346446896E+01  1.973750604259E+01  1.997435611510E+01  2.021404838848E+01
  2.045661696914E+01  2.070209637277E+01  2.095052152924E+01  2.120192778759E+01
  2.145635092104E+01  2.171382713210E+01  2.197439305768E+01  2.223808577437E+01
  2.250494280367E+01  2.277500211731E+01  2.304830214272E+01  2.332488176843E+01
  2.360478034965E+01  2.388803771385E+01  2.417469416641E+01  2.446479049641E+01
  2.475836798237E+01  2.505546839816E+01  2.535613401893E+01  2.566040762716E+01
  2.596833251869E+01  2.627995250891E+01  2.659531193902E+01  2.691445568229E+01
  2.723742915047E+01  2.756427830028E+01  2.789504963988E+01  2.822979023556E+01
  2.856854771839E+01  2.891137029101E+01  2.925830673450E+01  2.960940641532E+01
  2.996471929230E+01  3.032429592381E+01  3.068818747489E+01  3.105644572459E+01
  3.142912307329E+01  3.180627255017E+01  3.218794782077E+01  3.257420319462E+01
  3.296509363295E+01  3.336067475655E+01  3.376100285363E+01  3.416613488787E+01
  3.457612850652E+01  3.499104204860E+01  3.541093455319E+01  3.583586576782E+01
  3.626589615704E+01  3.670108691092E+01  3.714149995385E+01  3.758719795330E+01
  3.803824432874E+01  3.849470326068E+01  3.895663969981E+01  3.942411937621E+01
  3.989720880872E+01  4.037597531443E+01  4.086048701820E+01  4.135081286242E+01
  4.184702261677E+01  4.234918688817E+01  4.285737713083E+01  4.337166565640E+01
  4.389212564428E+01  4.441883115201E+01
</grid-data>
</grid>
<valence-charge total-charge="19" is-unscreening-charge="yes"
 rescaled-to-z-pseudo="no">
<radfunc>
<data npts="458">
  2.163002464471E+00  2.165514711821E+00  2.173267818633E+00  2.186105419242E+00
  2.203962289970E+00  2.227456695704E+00  2.257423873336E+00  2.291771640468E+00
  2.330433659112E+00  2.375575131162E+00  2.426528536157E+00  2.481996561854E+00
  2.549150509062E+00  2.619422400130E+00  2.689760431980E+00  2.770949758154E+00
  2.864666185401E+00  2.953719225916E+00  3.054084593387E+00  3.167198295997E+00
  3.294676847829E+00  3.408217103621E+00  3.533144425869E+00  3.670593530921E+00
  3.821808676526E+00  3.988152874426E+00  4.171117390548E+00  4.320222432305E+00
  4.480331015336E+00  4.652233168914E+00  4.836769704635E+00  5.034833987510E+00
  5.247373376766E+00  5.475390214484E+00  5.719942212976E+00  5.982142059934E+00
  6.263156023293E+00  6.564201295031E+00  6.776649039827E+00  6.998945291730E+00
  7.231481856573E+00  7.474656238153E+00  7.728870079778E+00  7.994527307003E+00
  8.272031935117E+00  8.561785502001E+00  8.864184084183E+00  9.179614851184E+00
  9.508452110807E+00  9.851052795904E+00  1.020775134157E+01  1.057885390076E+01
  1.096463184650E+01  1.136531450962E+01  1.178108110408E+01  1.221205179578E+01
  1.265827787750E+01  1.311973102157E+01  1.359629159382E+01  1.408773602769E+01
  1.459372327701E+01  1.511378038935E+01  1.564728727093E+01  1.619346074802E+01
  1.675133806977E+01  1.731976004323E+01  1.789735404384E+01  1.818909910213E+01
  1.848251720273E+01  1.877736934068E+01  1.907340013654E+01  1.937033738897E+01
  1.966789165465E+01  1.996575586036E+01  2.026360495214E+01  2.056109558694E+01
  2.085786587221E+01  2.115353515947E+01  2.144770389783E+01  2.173995355392E+01
  2.202984660494E+01  2.231692661134E+01  2.260071837640E+01  2.288072819957E+01
  2.315644423080E+01  2.342733693297E+01  2.369285965967E+01  2.395244935510E+01
  2.420552738318E+01  2.445150049224E+01  2.468976192159E+01  2.491969265565E+01
  2.514066283087E+01  2.535203329996E+01  2.555315735714E+01  2.574338262715E+01
  2.592205312000E+01  2.608851145179E+01  2.624210123114E+01  2.638216960893E+01
  2.650806998765E+01  2.661916488507E+01  2.671482894475E+01  2.679445208440E+01
  2.685744277071E+01  2.690323140727E+01  2.693127381997E+01  2.694105482200E+01
  2.693209183812E+01  2.690393856577E+01  2.685618864815E+01  2.678847933212E+01
  2.670049508182E+01  2.659197111660E+01  2.646269684043E+01  2.631251912788E+01
  2.614134543078E+01  2.594914666843E+01  2.573595986381E+01  2.550189048752E+01
  2.524711447206E+01  2.497187985900E+01  2.467650804356E+01  2.436139458224E+01
  2.402700953210E+01  2.367389729295E+01  2.330267592739E+01  2.291403593803E+01
  2.250873848589E+01  2.208761303938E+01  2.165155444953E+01  2.120151945297E+01
  2.073852261164E+01  2.026363170492E+01  1.977796259739E+01  1.928267361292E+01
  1.877895945337E+01  1.826804470720E+01  1.775117700077E+01  1.722961985134E+01
  1.670464528705E+01  1.617752630446E+01  1.564952923854E+01  1.512190612362E+01
  1.459588712622E+01  1.407267313160E+01  1.355342856610E+01  1.303927453560E+01
  1.253128235797E+01  1.203046756300E+01  1.153778442815E+01  1.105412111170E+01
  1.058029543728E+01  1.011705137504E+01  9.665056255142E+00  9.224898739257E+00
  8.797087565091E+00  8.382051068087E+00  7.980137473703E+00  7.591615942937E+00
  7.216678343447E+00  6.855441708856E+00  6.507951339727E+00  6.174184491438E+00
  5.854054586786E+00  5.547415884805E+00  5.254068531873E+00  4.973763916958E+00
  4.706210249561E+00  4.451078498868E+00  4.208009219815E+00  3.976619695929E+00
  3.756509602396E+00  3.547268996877E+00  3.348487375167E+00  3.159756915160E+00
  2.980675244347E+00  2.810847706332E+00  2.649889083592E+00  2.497424751354E+00
  2.353090881014E+00  2.216532743800E+00  2.087402283485E+00  1.965359047899E+00
  1.850070873580E+00  1.741214505867E+00  1.638476109447E+00  1.541551677336E+00
  1.450147346190E+00  1.363979625691E+00  1.282775549576E+00  1.206272755644E+00
  1.134219501801E+00  1.066374624906E+00  1.002507448866E+00  9.423976480903E-01
  8.858350720445E-01  8.326195363085E-01  7.825605851649E-01  7.354772303841E-01
  6.911976705107E-01  6.495589946060E-01  6.104068740502E-01  5.735952456781E-01
  5.389859891987E-01  5.064486015409E-01  4.758598704756E-01  4.471035495883E-01
  4.200700364173E-01  3.946560553262E-01  3.707643464585E-01  3.483033619095E-01
  3.271869700603E-01  3.073341688425E-01  2.886688085427E-01  2.711193246108E-01
  2.546184808085E-01  2.391031229153E-01  2.245139431093E-01  2.107952550506E-01
  1.978947796128E-01  1.857634411456E-01  1.743551740888E-01  1.636267397141E-01
  1.535375527262E-01  1.440495174267E-01  1.351268731142E-01  1.267360483792E-01
  1.188455239329E-01  1.114257036056E-01  1.044487931400E-01  9.788868640750E-02
  9.172085867600E-02  8.592226656181E-02  8.047125430635E-02  7.534746602675E-02
  7.053176359955E-02  6.600614984885E-02  6.175369672217E-02  5.775847815086E-02
  5.400550730530E-02  5.048067796883E-02  4.717070976841E-02  4.406309701366E-02
  4.114606090951E-02  3.840850492097E-02  3.583997308126E-02  3.343061104732E-02
  3.117112971814E-02  2.905277124311E-02  2.706727725827E-02  2.520685919876E-02
  2.346417054530E-02  2.183228087221E-02  2.030465157147E-02  1.887511313897E-02
  1.753784391283E-02  1.628735016328E-02  1.511844743974E-02  1.402624308693E-02
  1.300611984830E-02  1.205372048013E-02  1.116493330550E-02  1.033587864202E-02
  9.562896041985E-03  8.842532288088E-03  8.171530092026E-03  7.546817447144E-03
  6.965497590076E-03  6.424839529755E-03  5.922269105379E-03  5.455360538018E-03
  5.021828443327E-03  4.619520275476E-03  4.246409174877E-03  3.900587194502E-03
  3.580258881715E-03  3.283735194418E-03  3.009427732082E-03  2.755843263811E-03
  2.521578537044E-03  2.305315351787E-03  2.105815886448E-03  1.921918262381E-03
  1.752532335176E-03  1.596635701546E-03  1.453269911374E-03  1.321536875128E-03
  1.200595457372E-03  1.089658247595E-03  9.879884999796E-04  8.948972341074E-04
  8.097404888919E-04  7.319167223330E-04  6.608643499364E-04  5.960594148789E-04
  5.370133832357E-04  4.832710578079E-04  4.344086043157E-04  3.900316839525E-04
  3.497736865348E-04  3.132940587270E-04  2.802767220769E-04  2.504285758601E-04
  2.234780800005E-04  1.991739136098E-04  1.772837049610E-04  1.575928289869E-04
  1.399032686626E-04  1.240325368887E-04  1.098126557464E-04  9.708919022790E-05
  8.572033376719E-05  7.557604310286E-05  6.653722018601E-05  5.849493901658E-05
  5.134971543836E-05  4.501081805342E-05  3.939561852881E-05  3.442897966499E-05
  3.004267967593E-05  2.617487119899E-05  2.276957360792E-05  1.977619724830E-05
  1.714909825196E-05  1.484716261764E-05  1.283341827019E-05  1.107467383314E-05
  9.541182868022E-06  8.206332352777E-06  7.046354189041E-06  6.040058546802E-06
  5.168587874674E-06  4.415190425391E-06  3.765012169701E-06  3.204905997556E-06
  2.723257133643E-06  2.309823724785E-06  1.955591589489E-06  1.652642154775E-06
  1.394032642150E-06  1.173687602941E-06  9.863009428814E-07  8.272476165613E-07
  6.925042137365E-07  5.785777013087E-07  4.824416266597E-07  4.014791297022E-07
  3.334321522065E-07  2.763562734295E-07  2.285806405953E-07  1.886725011460E-07
  1.554058807398E-07  1.277339865761E-07  1.047649496620E-07  8.574055201256E-08
  7.001761544109E-08  5.705175750503E-08  4.638324730607E-08  3.762471921052E-08
  3.045052616788E-08  2.458753620065E-08  1.980719586085E-08  1.591870305533E-08
  1.276314869814E-08  1.020850222788E-08  8.145330179659E-09  6.483150039527E-09
  5.147332376383E-09  4.076477274940E-09  3.220195631060E-09  2.537239373663E-09
  1.993930077067E-09  1.559830901055E-09  1.219507952118E-09  9.508642124317E-10
  7.393769388133E-10  5.733415545873E-10  4.433507503825E-10  3.418646335491E-10
  2.628570249394E-10  2.015252524863E-10  1.540527351559E-10  1.174153245355E-10
  8.922380728381E-11  6.759619953006E-11  5.105451066449E-11  3.844154261996E-11
  2.885404291327E-11  2.158916418200E-11  1.610171631096E-11  1.197014406204E-11
  8.869536153236E-12  6.550282081572E-12  4.821250282961E-12  3.536573789759E-12
  2.585304540035E-12  1.883341040659E-12  1.367151418259E-12  9.889094495280E-13
  7.127387032096E-13  5.118226165827E-13  3.661888260725E-13  2.610165948376E-13
  1.853485773492E-13  1.311139632802E-13  9.239051420038E-14  6.484918529237E-14
  4.533776070766E-14  3.156991813982E-14  2.189393805952E-14  1.512134029039E-14
  1.040043091060E-14  7.123368859586E-15  4.858147871918E-15  3.299021121404E-15
  2.230520065955E-15  1.501451031373E-15  1.006183659190E-15  6.712451572989E-16
  4.457582339993E-16  2.946511112395E-16  1.938577640105E-16  1.269405374873E-16
  8.272462280187E-17  5.364899541477E-17  3.462226046276E-17  2.223262147863E-17
  1.420500249146E-17  9.029863772749E-18  5.710629549655E-18  3.592715985817E-18
  2.248385150641E-18  1.399587135873E-18  8.665282852426E-19  5.335694214922E-19
  3.267352474554E-19  1.989614978428E-19  1.204705450555E-19  7.252736669486E-20
  4.341124062177E-20  2.583160615309E-20  1.527984039659E-20  8.984071947445E-21
  5.250290322404E-21  0.000000000000E+00  0.000000000000E+00  0.000000000000E+00
  0.000000000000E+00  0.000000000000E+00  0.000000000000E+00  0.000000000000E+00
  0.000000000000E+00  0.000000000000E+00  0.000000000000E+00  0.000000000000E+00
  0.000000000000E+00  0.000000000000E+00
</data>
</radfunc>
</valence-charge>
<pseudocore-charge matching-radius="0.606153510745"
 number-of-continuous-derivatives="4">
<annotation model-charge-form="Teter function with specified parameters" />
<radfunc>
<data npts="291">
  1.894298842499E+02  1.894032733791E+02  1.893211737721E+02  1.891853158717E+02
  1.889965111709E+02  1.887484021974E+02  1.884324359239E+02  1.880709648013E+02
  1.876649595157E+02  1.871920682700E+02  1.866597810903E+02  1.860821134690E+02
  1.853852091175E+02  1.846588131874E+02  1.839346402116E+02  1.831023254591E+02
  1.821463042402E+02  1.812424818920E+02  1.802291836121E+02  1.790938636746E+02
  1.778227302944E+02  1.766979306367E+02  1.754681996184E+02  1.741245914858E+02
  1.726575745379E+02  1.710570316879E+02  1.693122716717E+02  1.679023166756E+02
  1.663999945002E+02  1.648002250835E+02  1.630977987438E+02  1.612873988347E+02
  1.593636297703E+02  1.573210511152E+02  1.551542184760E+02  1.528577319655E+02
  1.504262930342E+02  1.478547704678E+02  1.460601715035E+02  1.441997632581E+02
  1.422722526200E+02  1.402764377488E+02  1.382112228031E+02  1.360756337433E+02
  1.338688352201E+02  1.315901485447E+02  1.292390707253E+02  1.268152945360E+02
  1.243187295667E+02  1.217495241812E+02  1.191080882822E+02  1.163951167595E+02
  1.136116134604E+02  1.107589154907E+02  1.078387176127E+02  1.048530964690E+02
  1.018045343109E+02  9.869594186779E+01  9.553067993868E+01  9.231257924029E+01
  8.904595798927E+01  8.573563664711E+01  8.238694920473E+01  7.900575033781E+01
  7.559841772287E+01  7.217184877191E+01  6.873345102180E+01  6.701226673147E+01
  6.529112540730E+01  6.357108772509E+01  6.185324165724E+01  6.013870122242E+01
  5.842860508513E+01  5.672411500093E+01  5.502641410319E+01  5.333670502816E+01
  5.165620787543E+01  4.998615800165E+01  4.832780364636E+01  4.668240338922E+01
  4.505122343930E+01  4.343553475779E+01  4.183661001683E+01  4.025572039814E+01
  3.869413223675E+01  3.715310351601E+01  3.563388022207E+01  3.413769256705E+01
  3.266575109204E+01  3.121924266255E+01  2.979932637081E+01  2.840712936111E+01
  2.704374259592E+01  2.571021658267E+01  2.440755708250E+01  2.313672082432E+01
  2.189861124908E+01  2.069407431080E+01  1.952389436265E+01  1.838879015754E+01
  1.728941099417E+01  1.622633304058E+01  1.520005586810E+01  1.421099922929E+01
  1.325950011394E+01  1.234581011711E+01  1.147009315325E+01  1.063242354950E+01
  9.832784550420E+00  9.071067265148E+00  8.347070085626E+00  7.660498602666E+00
  7.010966043453E+00  6.397994250854E+00  5.821015221028E+00  5.279373211439E+00
  4.772327426549E+00  4.299055283155E+00  3.858656251512E+00  3.450156262328E+00
  3.072512663125E+00  2.724619700755E+00  2.405314499875E+00  2.113383500086E+00
  1.847569307421E+00  1.606577908837E+00  1.389086191702E+00  1.193749703845E+00
  1.019210583915E+00  8.641055865949E-01  7.270741227826E-01  6.067662314162E-01
  5.018503972331E-01  4.110211275936E-01  3.330062016774E-01  2.665735069778E-01
  2.105373811465E-01  1.637643819490E-01  1.251784143789E-01  9.376515185472E-02
  6.857569781198E-02  4.872944482987E-02  3.341610053628E-02  2.189686274863E-02
  1.350474038830E-02  7.644031386863E-03  3.788983766450E-03  1.481680979555E-03
  3.292070609250E-04  1.607861134093E-07  2.206004501359E-04  7.695116851965E-04
  1.473899557776E-03  2.203612687061E-03  2.866011023335E-03  3.400589996510E-03
  3.773671850900E-03  3.973270073998E-03  4.004224957918E-03  3.883697664522E-03
  3.637096972991E-03  3.294497555044E-03  2.887591633979E-03  2.447197814383E-03
  2.001332366047E-03  1.573830001760E-03  1.183483916335E-03  8.436592514919E-04
  5.623208677580E-04  3.424059055211E-04  1.824645496903E-04  7.748897394203E-05
  1.985075509500E-05  2.710491595353E-07  8.755244231276E-06  3.543419582625E-05
  7.126687739924E-05  1.085735688376E-04  1.413836836458E-04  1.655970777341E-04
  1.789712769290E-04  1.809586689179E-04  1.724266274497E-04  1.552992638889E-04
  1.321617620671E-04  1.058670398782E-04  7.918006051377E-05  5.448801002982E-05
  3.359550681210E-05  1.761391114872E-05  6.943637651217E-06  1.339107272775E-06
  3.847264737639E-08  1.935182353256E-06  5.766225265520E-06  1.029261442913E-05
  1.445110571559E-05  1.746177248716E-05  1.888310203865E-05  1.861381707441E-05
  1.684768886633E-05  1.399331197751E-05  1.057446485919E-05  7.127889013911E-06
  4.114032953189E-06  1.852834645027E-06  4.915808309845E-07  6.129143120131E-09
  0.000000000000E+00  0.000000000000E+00  0.000000000000E+00  0.000000000000E+00
  0.000000000000E+00  0.000000000000E+00  0.000000000000E+00  0.000000000000E+00
  0.000000000000E+00  0.000000000000E+00  0.000000000000E+00  0.000000000000E+00
  0.000000000000E+00  0.000000000000E+00  0.000000000000E+00  0.000000000000E+00
  0.000000000000E+00  0.000000000000E+00  0.000000000000E+00  0.000000000000E+00
  0.000000000000E+00  0.000000000000E+00  0.000000000000E+00  0.000000000000E+00
  0.000000000000E+00  0.000000000000E+00  0.000000000000E+00  0.000000000000E+00
  0.000000000000E+00  0.000000000000E+00  0.000000000000E+00  0.000000000000E+00
  0.000000000000E+00  0.000000000000E+00  0.000000000000E+00  0.000000000000E+00
  0.000000000000E+00  0.000000000000E+00  0.000000000000E+00  0.000000000000E+00
  0.000000000000E+00  0.000000000000E+00  0.000000000000E+00  0.000000000000E+00
  0.000000000000E+00  0.000000000000E+00  0.000000000000E+00  0.000000000000E+00
  0.000000000000E+00  0.000000000000E+00  0.000000000000E+00  0.000000000000E+00
  0.000000000000E+00  0.000000000000E+00  0.000000000000E+00  0.000000000000E+00
  0.000000000000E+00  0.000000000000E+00  0.000000000000E+00  0.000000000000E+00
  0.000000000000E+00  0.000000000000E+00  0.000000000000E+00  0.000000000000E+00
  0.000000000000E+00  0.000000000000E+00  0.000000000000E+00  0.000000000000E+00
  0.000000000000E+00  0.000000000000E+00  0.000000000000E+00  0.000000000000E+00
  0.000000000000E+00  0.000000000000E+00  0.000000000000E+00  0.000000000000E+00
  0.000000000000E+00  0.000000000000E+00  0.000000000000E+00  0.000000000000E+00
  0.000000000000E+00  0.000000000000E+00  0.000000000000E+00
</data>
</radfunc>
</pseudocore-charge>
<semilocal-potentials set="scalar_relativistic">
<slps n="4" l="s" rc="1.41383592476" eref="-3.49308919084">
<radfunc>
<data npts="291">
 -7.079164990035E+00 -7.082977652653E+00 -7.094735953201E+00 -7.114178962964E+00
 -7.141169292201E+00 -7.176584364139E+00 -7.221598450163E+00 -7.272976334790E+00
 -7.330533219928E+00 -7.397371764400E+00 -7.472348733933E+00 -7.553412145983E+00
 -7.650787075310E+00 -7.751796400753E+00 -7.852006289950E+00 -7.966580889510E+00
 -8.097400169418E+00 -8.220312749162E+00 -8.357239255696E+00 -8.509568856138E+00
 -8.678775897818E+00 -8.827333234754E+00 -8.988507569327E+00 -9.163143250905E+00
 -9.352097436978E+00 -9.556230839852E+00 -9.776396494616E+00 -9.952543611153E+00
 -1.013851586140E+01 -1.033463574672E+01 -1.054120539718E+01 -1.075850153469E+01
 -1.098677003264E+01 -1.122622009665E+01 -1.147701810236E+01 -1.173928113903E+01
 -1.201307032050E+01 -1.229838393868E+01 -1.249496327853E+01 -1.269659460436E+01
 -1.290322207446E+01 -1.311477293876E+01 -1.333115668912E+01 -1.355226424264E+01
 -1.377796716503E+01 -1.400811694091E+01 -1.424254429769E+01 -1.448105858931E+01
 -1.472344724527E+01 -1.496947528991E+01 -1.521888493588E+01 -1.547139525450E+01
 -1.572670192489E+01 -1.598447706196E+01 -1.624436912228E+01 -1.650600288523E+01
 -1.676897950509E+01 -1.703287662857E+01 -1.729724857046E+01 -1.756162653892E+01
 -1.782551890059E+01 -1.808841147495E+01 -1.834976784674E+01 -1.860902968474E+01
 -1.886561705620E+01 -1.911892872687E+01 -1.936834243810E+01 -1.949138741619E+01
 -1.961321515603E+01 -1.973374206823E+01 -1.985288329088E+01 -1.997055269509E+01
 -2.008666289041E+01 -2.020112523030E+01 -2.031384981783E+01 -2.042474551190E+01
 -2.053371993428E+01 -2.064067947787E+01 -2.074552931670E+01 -2.084817341809E+01
 -2.094851455762E+01 -2.104645433780E+01 -2.114189321097E+01 -2.123473050767E+01
 -2.132486447130E+01 -2.141219230045E+01 -2.149661019999E+01 -2.157801344252E+01
 -2.165629644153E+01 -2.173135283797E+01 -2.180307560172E+01 -2.187135714960E+01
 -2.193608948149E+01 -2.199716433572E+01 -2.205447336491E+01 -2.210790833287E+01
 -2.215736133270E+01 -2.220272502550E+01 -2.224389289848E+01 -2.228075954014E+01
 -2.231322092944E+01 -2.234117473474E+01 -2.236452061749E+01 -2.238316053483E+01
 -2.239699903461E+01 -2.240594353657E+01 -2.240990459321E+01 -2.240879612499E+01
 -2.240253562597E+01 -2.239104433747E+01 -2.237424739007E+01 -2.235207391672E+01
 -2.232445714236E+01 -2.229133445826E+01 -2.225264749104E+01 -2.220834217828E+01
 -2.215836886301E+01 -2.210268241912E+01 -2.204124241870E+01 -2.197401335017E+01
 -2.190096489317E+01 -2.182207225320E+01 -2.173731655536E+01 -2.164668529316E+01
 -2.155017282544E+01 -2.144778091156E+01 -2.133951927329E+01 -2.122540617044E+01
 -2.110546897687E+01 -2.097974474381E+01 -2.084828073862E+01 -2.071113494880E+01
 -2.056837654333E+01 -2.042008628630E+01 -2.026635690056E+01 -2.010729338226E+01
 -1.994301326975E+01 -1.977364687289E+01 -1.959933747074E+01 -1.942024148705E+01
 -1.923652865389E+01 -1.904838217434E+01 -1.885599889560E+01 -1.865958950402E+01
 -1.845937875464E+01 -1.825560574885E+01 -1.804852427607E+01 -1.783840323880E+01
 -1.762552718466E+01 -1.741019697522E+01 -1.719273062839E+01 -1.697346437966E+01