<?xml version="1.0" encoding="UTF-8" ?>
<psml version="1.1" energy_unit="hartree" length_unit="bohr"
 uuid="d67d2e50-be62-11e7-6ccf-c1f97d56f789"
 xmlns="http://esl.cecam.org/PSML/ns/1.1">
<provenance creator="ONCVPSP-3.3.0+psml-3.3.0-73 (scalar-relativistic)"
 date="2017-10-31">
<annotation action="semilocal-pseudopotential-generation"
 action-cont="projectors-generation" />
<input-file name="oncvpsp-input">
<![CDATA[# atsym z nc nv iexc psfile
K 19 3 3 4 upf
# n l f
1 0 2.0
2 0 2.0
2 1 6.0
3 0 2.0
3 1 6.0
4 0 1.0
# lmax
2
# l rc ep ncon nbas qcut
0 1.35 0.0 4 8 8.2
1 1.45 0.0 4 8 8.6
2 1.6 0.05 4 8 8.2
# lloc lpopt rc5 dvloc0
4 5 1.1 0.0
# l nproj debl
0 2 1.0
1 2 0.8
2 2 0.5
# icmod fcfact
3 5 1.4
# epsh1 epsh2 depsh
-12.0 12.0 0.02
# rlmax drl
4.0 0.01
 0
]]>
</input-file>
</provenance>
<pseudo-atom-spec atomic-label="K" atomic-number="19" z-pseudo="9"
 flavor="Hamann&apos;s oncvpsp" relativity="scalar" spin-dft="no"
 core-corrections="yes">
<annotation pseudo-energy="-28.3572165848" />
<exchange-correlation>
<annotation oncvpsp-xc-code="4" oncvpsp-xc-type="GGA -- Perdew-Burke-Ernzerhof" />
<libxc-info number-of-functionals="2">
<functional name="Perdew, Burke &amp; Ernzerhof (GGA)" type="exchange" id="101" />
<functional name="Perdew, Burke &amp; Ernzerhof (GGA)" type="correlation"
 id="130" />
</libxc-info>
</exchange-correlation>
<valence-configuration total-valence-charge="9">
<shell n="3" l="s" occupation="2" />
<shell n="3" l="p" occupation="6" />
<shell n="4" l="s" occupation="1" />
</valence-configuration>
</pseudo-atom-spec>
<grid npts="458">
<annotation type="sampled from oncvpsp log grid"
 recipe="r(i:1..N) = r1*exp(a*(i-1)) + r=0; resampled"
 recipe-cont="r1: scale; a: step" scale="0.263157894737E-04"
 step="0.119285708653E-01" delta="0.500000000000E-02" rmax="44.3805247454" />
<grid-data>
  0.000000000000E+00  5.007741529749E-03  1.012260156078E-02  1.518551649569E-02
  2.021910222441E-02  2.536247345865E-02  3.069586001339E-02  3.584482530836E-02
  4.087070279455E-02  4.604868479549E-02  5.126746496251E-02  5.640088820213E-02
  6.204832230958E-02  6.745181355051E-02  7.245639225921E-02  7.783228504730E-02
  8.360704151557E-02  8.874531156514E-02  9.419936624988E-02  9.998861286736E-02
  1.061336514369E-01  1.113205019773E-01  1.167608387415E-01  1.224670498379E-01
  1.284521287929E-01  1.347297041389E-01  1.413140704474E-01  1.464626688527E-01
  1.517988498918E-01  1.573294478995E-01  1.630615462106E-01  1.690024862325E-01
  1.751598768472E-01  1.815416041568E-01  1.881558415833E-01  1.950110603372E-01
  2.021160402665E-01  2.094798811020E-01  2.145375633513E-01  2.197173582809E-01
  2.250222141792E-01  2.304551505184E-01  2.360192596725E-01  2.417177086780E-01
  2.475537410363E-01  2.535306785599E-01  2.596519232631E-01  2.659209592983E-01
  2.723413549396E-01  2.789167646133E-01  2.856509309781E-01  2.925476870557E-01
  2.996109584119E-01  3.068447653918E-01  3.142532254075E-01  3.218405552817E-01
  3.296110736484E-01  3.375692034106E-01  3.457194742577E-01  3.540665252442E-01
  3.626151074297E-01  3.713700865835E-01  3.803364459540E-01  3.895192891051E-01
  3.989238428212E-01  4.085554600823E-01  4.184196231105E-01  4.234406585878E-01
  4.285219464909E-01  4.336642098488E-01  4.388681803670E-01  4.441345985314E-01
  4.494642137138E-01  4.548577842783E-01  4.603160776897E-01  4.658398706219E-01
  4.714299490694E-01  4.770871084582E-01  4.828121537597E-01  4.886058996048E-01
  4.944691704001E-01  5.004028004449E-01  5.064076340502E-01  5.124845256588E-01
  5.186343399668E-01  5.248579520464E-01  5.311562474709E-01  5.375301224406E-01
  5.439804839099E-01  5.505082497168E-01  5.571143487134E-01  5.637997208979E-01
  5.705653175487E-01  5.774121013593E-01  5.843410465756E-01  5.913531391345E-01
  5.984493768041E-01  6.056307693258E-01  6.128983385577E-01  6.202531186204E-01
  6.276961560438E-01  6.352285099163E-01  6.428512520353E-01  6.505654670598E-01
  6.583722526645E-01  6.662727196965E-01  6.742679923328E-01  6.823592082408E-01
  6.905475187397E-01  6.988340889646E-01  7.072200980321E-01  7.157067392085E-01
  7.242952200790E-01  7.329867627200E-01  7.417826038726E-01  7.506839951191E-01
  7.596922030605E-01  7.688085094973E-01  7.780342116112E-01  7.873706221506E-01
  7.968190696164E-01  8.063808984518E-01  8.160574692332E-01  8.258501588640E-01
  8.357603607703E-01  8.457894850996E-01  8.559389589208E-01  8.662102264278E-01
  8.766047491450E-01  8.871240061347E-01  8.977694942083E-01  9.085427281388E-01
  9.194452408765E-01  9.304785837670E-01  9.416443267722E-01  9.529440586935E-01
  9.643793873978E-01  9.759519400466E-01  9.876633633271E-01  9.995153236871E-01
  1.011509507571E+00  1.023647621662E+00  1.035931393122E+00  1.048362569840E+00
  1.060942920678E+00  1.073674235726E+00  1.086558326554E+00  1.099597026473E+00
  1.112792190791E+00  1.126145697080E+00  1.139659445445E+00  1.153335358791E+00
  1.167175383096E+00  1.181181487693E+00  1.195355665546E+00  1.209699933532E+00
  1.224216332735E+00  1.238906928727E+00  1.253773811872E+00  1.268819097615E+00
  1.284044926786E+00  1.299453465907E+00  1.315046907498E+00  1.330827470388E+00
  1.346797400033E+00  1.362958968833E+00  1.379314476459E+00  1.395866250177E+00
  1.412616645179E+00  1.429568044921E+00  1.446722861460E+00  1.464083535798E+00
  1.481652538227E+00  1.499432368686E+00  1.517425557110E+00  1.535634663795E+00
  1.554062279761E+00  1.572711027118E+00  1.591583559444E+00  1.610682562157E+00
  1.630010752903E+00  1.649570881938E+00  1.669365732521E+00  1.689398121311E+00
  1.709670898767E+00  1.730186949552E+00  1.750949192947E+00  1.771960583262E+00
  1.793224110261E+00  1.814742799584E+00  1.836519713179E+00  1.858557949737E+00
  1.880860645134E+00  1.903430972876E+00  1.926272144550E+00  1.949387410285E+00
  1.972780059208E+00  1.996453419919E+00  2.020410860958E+00  2.044655791289E+00
  2.069191660785E+00  2.094021960714E+00  2.119150224243E+00  2.144580026934E+00
  2.170314987257E+00  2.196358767104E+00  2.222715072309E+00  2.249387653177E+00
  2.276380305015E+00  2.303696868675E+00  2.331341231099E+00  2.359317325873E+00
  2.387629133783E+00  2.416280683389E+00  2.445276051589E+00  2.474619364208E+00
  2.504314796579E+00  2.534366574138E+00  2.564778973027E+00  2.595556320704E+00
  2.626702996552E+00  2.658223432511E+00  2.690122113701E+00  2.722403579065E+00
  2.755072422014E+00  2.788133291078E+00  2.821590890571E+00  2.855449981258E+00
  2.889715381033E+00  2.924391965606E+00  2.959484669193E+00  2.994998485223E+00
  3.030938467046E+00  3.067309728650E+00  3.104117445394E+00  3.141366854739E+00
  3.179063256996E+00  3.217212016080E+00  3.255818560273E+00  3.294888382996E+00
  3.334427043592E+00  3.374440168115E+00  3.414933450132E+00  3.455912651534E+00
  3.497383603352E+00  3.539352206593E+00  3.581824433072E+00  3.624806326269E+00
  3.668304002184E+00  3.712323650210E+00  3.756871534013E+00  3.801953992421E+00
  3.847577440330E+00  3.893748369614E+00  3.940473350049E+00  3.987759030250E+00
  4.035612138613E+00  4.084039484276E+00  4.133047958087E+00  4.182644533584E+00
  4.232836267987E+00  4.283630303203E+00  4.335033866842E+00  4.387054273244E+00
  4.439698924523E+00  4.492975311617E+00  4.546891015356E+00  4.601453707541E+00
  4.656671152031E+00  4.712551205855E+00  4.769101820326E+00  4.826331042170E+00
  4.884247014676E+00  4.942857978852E+00  5.002172274598E+00  5.062198341893E+00
  5.122944721996E+00  5.184420058660E+00  5.246633099364E+00  5.309592696556E+00
  5.373307808915E+00  5.437787502622E+00  5.503040952653E+00  5.569077444085E+00
  5.635906373414E+00  5.703537249895E+00  5.771979696894E+00  5.841243453257E+00
  5.911338374696E+00  5.982274435192E+00  6.054061728414E+00  6.126710469155E+00
  6.200230994785E+00  6.274633766723E+00  6.349929371923E+00  6.426128524386E+00
  6.503242066679E+00  6.581280971479E+00  6.660256343137E+00  6.740179419254E+00
  6.821061572286E+00  6.902914311153E+00  6.985749282887E+00  7.069578274281E+00
  7.154413213573E+00  7.240266172136E+00  7.327149366201E+00  7.415075158596E+00
  7.504056060499E+00  7.594104733225E+00  7.685233990024E+00  7.777456797904E+00
  7.870786279479E+00  7.965235714832E+00  8.060818543410E+00  8.157548365931E+00
  8.255438946323E+00  8.354504213678E+00  8.454758264243E+00  8.556215363413E+00
  8.658889947774E+00  8.762796627148E+00  8.867950186673E+00  8.974365588914E+00
  9.082057975981E+00  9.191042671692E+00  9.301335183753E+00  9.412951205958E+00
  9.525906620429E+00  9.640217499874E+00  9.755900109873E+00  9.872970911191E+00
  9.991446562126E+00  1.011134392087E+01  1.023268004792E+01  1.035547220850E+01
  1.047973787500E+01  1.060549472950E+01  1.073276066625E+01  1.086155379425E+01
  1.099189243978E+01  1.112379514906E+01  1.125728069084E+01  1.139236805913E+01
  1.152907647584E+01  1.166742539355E+01  1.180743449828E+01  1.194912371226E+01
  1.209251319680E+01  1.223762335517E+01  1.238447483543E+01  1.253308853345E+01
  1.268348559585E+01  1.283568742300E+01  1.298971567208E+01  1.314559226014E+01
  1.330333936727E+01  1.346297943967E+01  1.362453519295E+01  1.378802961527E+01
  1.395348597065E+01  1.412092780230E+01  1.429037893592E+01  1.446186348315E+01
  1.463540584495E+01  1.481103071509E+01  1.498876308367E+01  1.516862824068E+01
  1.535065177957E+01  1.553485960092E+01  1.572127791613E+01  1.590993325112E+01
  1.610085245014E+01  1.629406267954E+01  1.648959143169E+01  1.668746652887E+01
  1.688771612722E+01  1.709036872075E+01  1.729545314540E+01  1.750299858314E+01
  1.771303456614E+01  1.792559098093E+01  1.814069807270E+01  1.835838644958E+01
  1.857868708697E+01  1.880163133202E+01  1.902725090800E+01  1.925557791890E+01
  1.948664485392E+01  1.972048459217E+01  1.995713040728E+01  2.019661597216E+01
  2.043897536383E+01  2.068424306819E+01  2.093245398501E+01  2.118364343283E+01
  2.143784715403E+01  2.169510131988E+01  2.195544253571E+01  2.221890784614E+01
  2.248553474030E+01  2.275536115718E+01  2.302842549107E+01  2.330476659696E+01
  2.358442379612E+01  2.386743688168E+01  2.415384612426E+01  2.444369227775E+01
  2.473701658508E+01  2.503386078410E+01  2.533426711351E+01  2.563827831887E+01
  2.594593765870E+01  2.625728891060E+01  2.657237637753E+01  2.689124489406E+01
  2.721393983279E+01  2.754050711078E+01  2.787099319611E+01  2.820544511447E+01
  2.854391045584E+01  2.888643738131E+01  2.923307462988E+01  2.958387152544E+01
  2.993887798375E+01  3.029814451955E+01  3.066172225379E+01  3.102966292083E+01
  3.140201887588E+01  3.177884310239E+01  3.216018921962E+01  3.254611149026E+01
  3.293666482814E+01  3.333190480608E+01  3.373188766375E+01  3.413667031572E+01
  3.454631035951E+01  3.496086608382E+01  3.538039647683E+01  3.580496123455E+01
  3.623462076936E+01  3.666943621859E+01  3.710946945322E+01  3.755478308666E+01
  3.800544048370E+01  3.846150576950E+01  3.892304383873E+01  3.939012036480E+01
  3.986280180918E+01  4.034115543089E+01  4.082524929606E+01  4.131515228761E+01
  4.181093411506E+01  4.231266532444E+01  4.282041730834E+01  4.333426231604E+01
  4.385427346383E+01  4.438052474539E+01
</grid-data>
</grid>
<valence-charge total-charge="9" is-unscreening-charge="yes"
 rescaled-to-z-pseudo="no">
<radfunc>
<data npts="458">
  5.992390390961E-02  6.041451325884E-02  6.192858299411E-02  6.443553841926E-02
  6.792258124981E-02  7.251035708769E-02  7.836183903812E-02  8.506837456197E-02
  9.261690645352E-02  1.014300414740E-01  1.113773012210E-01  1.222053101135E-01
  1.353138089515E-01  1.490302054612E-01  1.627589193309E-01  1.786050722827E-01
  1.968957802159E-01  2.142762145676E-01  2.338647116873E-01  2.559421385228E-01
  2.808250289450E-01  3.029894724670E-01  3.273799327412E-01  3.542197699236E-01
  3.837545073797E-01  4.162539135654E-01  4.520142341932E-01  4.811688625824E-01
  5.124885893228E-01  5.461325617117E-01  5.822710991374E-01  6.210863345805E-01
  6.627728559061E-01  7.075383358209E-01  7.556041361847E-01  8.072058684980E-01
  8.625938877254E-01  9.220336910252E-01  9.640492992173E-01  1.008077291665E+00
  1.054207787705E+00  1.102533929154E+00  1.153151819220E+00  1.206160429704E+00
  1.261661471430E+00  1.319759222262E+00  1.380560306424E+00  1.444173418176E+00
  1.510708982164E+00  1.580278742042E+00  1.652995268150E+00  1.728971374305E+00
  1.808319432907E+00  1.891150576864E+00  1.977573776065E+00  2.067694775532E+00
  2.161614881805E+00  2.259429583788E+00  2.361226994074E+00  2.467086096903E+00
  2.577074789355E+00  2.691247703250E+00  2.809643796647E+00  2.932283705842E+00
  3.059166851545E+00  3.190268296512E+00  3.325535356549E+00  3.394706053201E+00
  3.464883972458E+00  3.536053072442E+00  3.608194857500E+00  3.681288247236E+00
  3.755309443176E+00  3.830231793448E+00  3.906025655868E+00  3.982658259917E+00
  4.060093568108E+00  4.138292137352E+00  4.217210980930E+00  4.296803431804E+00
  4.377019008018E+00  4.457803281031E+00  4.539097747899E+00  4.620839708261E+00
  4.702962147203E+00  4.785393625097E+00  4.868058175614E+00  4.950875213178E+00
  5.033759451163E+00  5.116620832255E+00  5.199364472401E+00  5.281890619871E+00
  5.364094630980E+00  5.445866964064E+00  5.527093193361E+00  5.607654044422E+00
  5.687425452752E+00  5.766278647329E+00  5.844080260663E+00  5.920692467021E+00
  5.995973150397E+00  6.069776103746E+00  6.141951260903E+00  6.212344962527E+00
  6.280800257259E+00  6.347157239157E+00  6.411253422260E+00  6.472924152996E+00
  6.532003060846E+00  6.588322547506E+00  6.641714314457E+00  6.692009928587E+00
  6.739041425173E+00  6.782641947186E+00  6.822646419531E+00  6.858892256417E+00
  6.891220099681E+00  6.919474585456E+00  6.943505136133E+00  6.963166774162E+00
  6.978320953750E+00  6.988836406117E+00  6.994589993488E+00  6.995467566618E+00
  6.991364820177E+00  6.982188139979E+00  6.967855435623E+00  6.948296951803E+00
  6.923456051219E+00  6.893289961766E+00  6.857770480456E+00  6.816884626365E+00
  6.770635234800E+00  6.719041484823E+00  6.662139352316E+00  6.599981980885E+00
  6.532639963065E+00  6.460201524615E+00  6.382772605019E+00  6.300476827839E+00
  6.213455355122E+00  6.121866620770E+00  6.025885938630E+00  5.925704981965E+00
  5.821531132074E+00  5.713586695022E+00  5.602107986750E+00  5.487344288320E+00
  5.369556674607E+00  5.249016721430E+00  5.126005097940E+00  5.000810052968E+00
  4.873725806036E+00  4.745050855612E+00  4.615086219037E+00  4.484133620511E+00
  4.352493645224E+00  4.220463879384E+00  4.088337057289E+00  3.956399237750E+00
  3.824928033001E+00  3.694190913710E+00  3.564443613754E+00  3.435928657971E+00
  3.308874035226E+00  3.183492037670E+00  3.059978431079E+00  2.938512434397E+00
  2.819257231220E+00  2.702359689080E+00  2.587949756152E+00  2.476140366863E+00
  2.367027704354E+00  2.260693025766E+00  2.157205431390E+00  2.056622719623E+00
  1.958991329496E+00  1.864347002009E+00  1.772715209667E+00  1.684111643986E+00
  1.598542712617E+00  1.516006046993E+00  1.436491017034E+00  1.359979250033E+00
  1.286445150883E+00  1.215856421003E+00  1.148174573520E+00  1.083355442453E+00
  1.021349683847E+00  9.621032669797E-01  9.055579539788E-01  8.516517663496E-01
  8.003194371013E-01  7.514928473343E-01  7.051014463102E-01  6.610726541852E-01
  6.193322467291E-01  5.798047214936E-01  5.424136450157E-01  5.070819807611E-01
  4.737323976184E-01  4.422875588556E-01  4.126703915380E-01  3.848043364915E-01
  3.586135789713E-01  3.340232602667E-01  3.109596705397E-01  2.893504232559E-01
  2.691246116265E-01  2.502129475363E-01  2.325478834848E-01  2.160637181201E-01
  2.006966859921E-01  1.863850321981E-01  1.730690726337E-01  1.606912406005E-01
  1.491961205556E-01  1.385304698113E-01  1.286432290189E-01  1.194855222805E-01
  1.110106477424E-01  1.031740595218E-01  9.593334180914E-02  8.924817597636E-02
  8.308030149299E-02  7.739347142503E-02  7.215340325203E-02  6.732772569392E-02
  6.288592218869E-02  5.879927160589E-02  5.504078672055E-02  5.158515090770E-02
  4.840865345169E-02  4.548912379929E-02  4.280586502356E-02  4.033958671276E-02
  3.807233745859E-02  3.598743709947E-02  3.406940888160E-02  3.230391174068E-02
  3.067767298188E-02  2.917842174328E-02  2.779482375717E-02  2.651641805515E-02
  2.533355636360E-02  2.423734596979E-02  2.321959676692E-02  2.227277298959E-02
  2.138994983717E-02  2.056477479930E-02  1.979143312255E-02  1.906461657677E-02
  1.837949455768E-02  1.773168661527E-02  1.711723569270E-02  1.653258163067E-02
  1.597453476506E-02  1.544024966597E-02  1.492719920916E-02  1.443314923513E-02
  1.395613405383E-02  1.349443301656E-02  1.304654832050E-02  1.261118415128E-02
  1.218722721429E-02  1.177372865954E-02  1.136988736988E-02  1.097503455696E-02
  1.058861959214E-02  1.021019698878E-02  9.839414446547E-03  9.476001866616E-03
  9.119761247492E-03  8.770557374753E-03  8.428309223494E-03  8.092981999631E-03
  7.764579755139E-03  7.443138522589E-03  7.128719925425E-03  6.821405231953E-03
  6.521289832156E-03  6.228478126634E-03  5.943078825462E-03  5.665200661040E-03
  5.394948522702E-03  5.132420021899E-03  4.877702495302E-03  4.630870449581E-03
  4.391983446422E-03  4.161084420284E-03  3.938198414879E-03  3.723331718215E-03
  3.516471370467E-03  3.317585014390E-03  3.126621054619E-03  2.943509089964E-03
  2.768160583757E-03  2.600469725478E-03  2.440314467716E-03  2.287557683923E-03
  2.142048424952E-03  2.003623242783E-03  1.872107554693E-03  1.747317024068E-03
  1.629058937009E-03  1.517133556800E-03  1.411335441117E-03  1.311454709464E-03
  1.217278250790E-03  1.128590863484E-03  1.045176321983E-03  9.668183660252E-04
  8.933016102277E-04  8.244123730328E-04  7.599394253155E-04  6.996746599574E-04
  6.434136845634E-04  5.909563402042E-04  5.421071496316E-04  4.966756988468E-04
  4.544769562158E-04  4.153315335313E-04  3.790658935308E-04  3.455125084027E-04
  3.145099737619E-04  2.859030824546E-04  2.595428623840E-04  2.352865823260E-04
  2.129977294536E-04  1.925459620105E-04  1.738070402791E-04  1.566627386913E-04
  1.410007416328E-04  1.267145252039E-04  1.137032269333E-04  1.018715051904E-04
  9.112938982320E-05  8.139212535280E-05  7.258000789525E-05  6.461821684226E-05
  5.743664222729E-05  5.096970861890E-05  4.515619632127E-05  3.993906061763E-05
  3.526524976096E-05  3.108552239550E-05  2.735426507705E-05  2.402931054785E-05
  2.107175740855E-05  1.844579181530E-05  1.611851181006E-05  1.405975486824E-05
  1.224192921702E-05  1.063984944161E-05  9.230576854682E-06  7.993265057083E-06
  6.909011066655E-06  5.960712337610E-06  5.132929936149E-06  4.411758080493E-06
  3.784700195967E-06  3.240551579445E-06  2.769288713166E-06  2.361965216562E-06
  2.010614376893E-06  1.708158155755E-06  1.448322529256E-06  1.225558985127E-06
  1.034971970361E-06  8.722520581387E-07  7.336145827777E-07  6.157434759790E-07
  5.157400265368E-07  4.310762786319E-07  3.595527804683E-07  2.992603949962E-07
  2.485458874014E-07  2.059810095384E-07  1.703348091667E-07  1.405489013397E-07
  1.157154502463E-07  9.505762189498E-08  7.791228089210E-08  6.371471809628E-08
  5.198520960634E-08  4.231722144118E-08  3.436708800004E-08  2.784500589002E-08
  2.250719781680E-08  1.814911385347E-08  1.459954944848E-08  1.171557094542E-08
  9.378150124109E-09  7.488419306532E-09  5.964467892786E-09  4.738609801594E-09
  3.755059197805E-09  2.967959115456E-09  2.339714154892E-09  1.839584377144E-09
  1.442502872791E-09  1.128084282907E-09  8.797958348969E-10  6.842662650287E-10
  5.307113711348E-10  4.104579113604E-10  3.165501747341E-10  2.434258319614E-10
  1.866496634781E-10  1.426954876723E-10  1.087681043530E-10  8.265835380289E-11
  6.262549467863E-11  4.730204698581E-11  3.561704958221E-11  2.673436336475E-11
  2.000322773905E-11  1.491876363531E-11  1.109052402635E-11  8.217533894937E-12
  6.068545763582E-12  4.466472844853E-12  3.276157062665E-12  2.394790079937E-12
  1.744437588728E-12  1.266225216639E-12  9.158325178491E-13  6.600130746505E-13
  4.739166287608E-13  3.390358233549E-13  2.416376027269E-13  1.715692837801E-13
  1.213531905693E-13  8.550269363805E-14  6.000747746754E-14  4.194765642809E-14
  2.920561207753E-14  2.025165218764E-14  1.398521474547E-14  9.617696732619E-15
  6.586348959602E-15  4.491261084523E-15  3.049437163293E-15  2.061467704135E-15
  1.387446360051E-15  9.296420659626E-16  6.200861426011E-16  4.117195475650E-16
  2.721074099449E-16  1.789965240999E-16  1.171897982385E-16  7.635743279185E-17
  4.951128573924E-17  3.194649072460E-17  0.000000000000E+00  0.000000000000E+00
  0.000000000000E+00  0.000000000000E+00
</data>
</radfunc>
</valence-charge>
<pseudocore-charge matching-radius="0.674267992333"
 number-of-continuous-derivatives="4">
<annotation model-charge-form="Teter function with specified parameters" />
<radfunc>
<data npts="257">
  3.498604536173E+01  3.498293469125E+01  3.497333673312E+01  3.495745095031E+01
  3.493536761597E+01  3.490633628698E+01  3.486934594775E+01  3.482700216723E+01
  3.477940814320E+01  3.472392874269E+01  3.466142334451E+01  3.459351960817E+01
  3.451150324206E+01  3.442590314244E+01  3.434044960958E+01  3.424209206316E+01
  3.412892562777E+01  3.402174995630E+01  3.390137357667E+01  3.376622429983E+01
  3.361455712153E+01  3.348003829701E+01  3.333263234149E+01  3.317116857197E+01
  3.299438336513E+01  3.280091566752E+01  3.258930297615E+01  3.241774699618E+01
  3.223440435951E+01  3.203854010279E+01  3.182938494442E+01  3.160613555701E+01
  3.136795522722E+01  3.111397497365E+01  3.084329520145E+01  3.055498798165E+01
  3.024810005203E+01  2.992165664629E+01  2.969267444737E+01  2.945426374649E+01
  2.920612652789E+01  2.894796451223E+01  2.867948029000E+01  2.840037858558E+01
  2.811036766049E+01  2.780916086450E+01  2.749647834333E+01  2.717204891108E+01
  2.683561209561E+01  2.648692036398E+01  2.612574153492E+01  2.575186138368E+01
  2.536508644385E+01  2.496524700868E+01  2.455220033298E+01  2.412583403391E+01
  2.368606968654E+01  2.323286660663E+01  2.276622580951E+01  2.228619412961E+01
  2.179286848022E+01  2.128640022793E+01  2.076699964966E+01  2.023494043387E+01
  1.969056417998E+01  1.913428484208E+01  1.856659305457E+01  1.827864280578E+01
  1.798806026834E+01  1.769493013569E+01  1.739934261657E+01  1.710139353461E+01
  1.680118441985E+01  1.649882259141E+01  1.619442123038E+01  1.588809944193E+01
  1.557998230574E+01  1.527020091362E+01  1.495889239349E+01  1.464619991844E+01
  1.433227269987E+01  1.401726596375E+01  1.370134090863E+01  1.338466464449E+01
  1.306741011124E+01  1.274975597573E+01  1.243188650623E+01  1.211399142330E+01
  1.179626572585E+01  1.147890949170E+01  1.116212765129E+01  1.084612973397E+01
  1.053112958584E+01  1.021734505848E+01  9.904997667871E+00  9.594312223077E+00
  9.285516424108E+00  8.978840428848E+00  8.674516388848E+00  8.372777954057E+00
  8.073859746736E+00  7.777996805002E+00  7.485423996656E+00  7.196375404196E+00
  6.911083682167E+00  6.629779388259E+00  6.352690289841E+00  6.080040647918E+00
  5.812050480806E+00  5.548934810107E+00  5.290902891927E+00  5.038157436570E+00
  4.790893820300E+00  4.549299293061E+00  4.313552186415E+00  4.083821126221E+00
  3.860264254945E+00  3.643028468725E+00  3.432248674637E+00  3.228047073813E+00
  3.030532476293E+00  2.839799653675E+00  2.655928735740E+00  2.478984657330E+00
  2.309016661779E+00  2.146057867159E+00  1.990124901508E+00  1.841217613045E+00
  1.699318861097E+00  1.564394393152E+00  1.436392813035E+00  1.315245644663E+00
  1.200867495271E+00  1.093156321273E+00  9.919937991389E-01  8.972458028084E-01
  8.087629881636E-01  7.263814840513E-01  6.499236882184E-01  5.791991653309E-01
  5.140056430059E-01  4.541301005054E-01  3.993499434358E-01  3.494342564893E-01
  3.041451249714E-01  2.632390146069E-01  2.264681979274E-01  1.935822144447E-01
  1.643293508278E-01  1.384581264642E-01  1.157187691105E-01  9.586466486399E-02
  7.865376643148E-02  6.384994366031E-02  5.122426054633E-02  4.055616346353E-02
  3.163456617694E-02  2.425881831184E-02  1.823954535581E-02  1.339934995695E-02
  9.573366236416E-03  6.609661030288E-03  4.369478383450E-03  2.727326194120E-03
  1.570906603804E-03  8.008944864808E-04  3.305711500475E-04  8.532305420394E-05
  2.017900258952E-06  2.827278654854E-05  1.216311757352E-04  2.486671179038E-04
  3.840364527861E-04  5.094955211139E-04  6.129082060902E-04  6.872618725800E-04
  7.297119617825E-04  7.406736393470E-04  7.229770115316E-04  6.811000640973E-04
  6.204907095161E-04  5.469862363265E-04  4.663351436774E-04  3.838229316226E-04
  3.040000304873E-04  2.305068219407E-04  1.659877601326E-04  1.120840653618E-04
  6.949244284176E-05  3.807586196226E-05  1.701167718607E-05  4.962309102048E-06
  2.543271380256E-07  1.053041628016E-06  5.521544142529E-06  1.195542011670E-05
  1.888695804422E-05  2.515543583602E-05  2.994280758478E-05  3.277667324606E-05
  3.350463170197E-05  3.224585968992E-05  2.932692442435E-05  2.520936818099E-05
  2.041648865305E-05  1.546601986220E-05  1.081418342306E-05  6.814959511742E-06
  3.696582836983E-06  1.555380511043E-06  3.653162517315E-07  1.528580328097E-10
  2.641236999575E-07  9.264987694666E-07  1.755470266258E-06  2.547335476779E-06
  3.147932557244E-06  3.464552051397E-06  3.467936148954E-06  3.185309938186E-06
  2.686496363214E-06  2.065914328733E-06  1.423563695404E-06  8.479411805908E-07
  4.032532608160E-07  1.224020615799E-07  6.168521140703E-09  0.000000000000E+00
  0.000000000000E+00  0.000000000000E+00  0.000000000000E+00  0.000000000000E+00
  0.000000000000E+00  0.000000000000E+00  0.000000000000E+00  0.000000000000E+00
  0.000000000000E+00  0.000000000000E+00  0.000000000000E+00  0.000000000000E+00
  0.000000000000E+00  0.000000000000E+00  0.000000000000E+00  0.000000000000E+00
  0.000000000000E+00  0.000000000000E+00  0.000000000000E+00  0.000000000000E+00
  0.000000000000E+00  0.000000000000E+00  0.000000000000E+00  0.000000000000E+00
  0.000000000000E+00  0.000000000000E+00  0.000000000000E+00  0.000000000000E+00
  0.000000000000E+00
</data>
</radfunc>
</pseudocore-charge>
<semilocal-potentials set="scalar_relativistic">
<slps n="3" l="s" rc="1.36295896883" eref="-1.29883620022">
<radfunc>
<data npts="257">
  5.610739021647E+01  5.606644239863E+01  5.594036570986E+01  5.573257943777E+01
  5.544554950324E+01  5.507139844062E+01  5.459984034529E+01  5.406701807573E+01
  5.347684471555E+01  5.280026101252E+01  5.205227034869E+01  5.125632059366E+01
  5.031729215985E+01  4.936236692536E+01  4.843370271283E+01  4.739404043039E+01
  4.623486966352E+01  4.517191013115E+01  4.401649468092E+01  4.276533435690E+01
  4.141604707799E+01  4.026507267116E+01  3.905041513841E+01  3.777263545328E+01
  3.643296043138E+01  3.503333155912E+01  3.357644127592E+01  3.244825045483E+01
  3.129153054935E+01  3.010827126043E+01  2.890069680843E+01  2.767125464448E+01
  2.642260025345E+01  2.515757817132E+01  2.387919945793E+01  2.259061598367E+01
  2.129509199875E+01  1.999597355159E+01  1.912957352703E+01  1.826409651215E+01
  1.740055314466E+01  1.653994871567E+01  1.568327893497E+01  1.483152582043E+01
  1.398565375195E+01  1.314660572756E+01  1.231529985658E+01  1.149262612054E+01
  1.067944342907E+01  9.876576993147E+00  9.084816033624E+00  8.304911838020E+00
  7.537576173810E+00  6.783480061488E+00  6.043252905969E+00  5.317481980342E+00
  4.606712251714E+00  3.911446534819E+00  3.232145955488E+00  2.569230702782E+00
  1.923081045697E+00  1.294038587965E+00  6.824077323617E-01  8.845732436695E-02
 -4.875775562724E-01 -1.045493688283E+00 -1.585117718718E+00 -1.848023688583E+00
 -2.106304122741E+00 -2.359944841060E+00 -2.608933146025E+00 -2.853257759737E+00
 -3.092908761875E+00 -3.327877528830E+00 -3.558156674306E+00 -3.783739991507E+00
 -4.004622397122E+00 -4.220799877711E+00 -4.432269437579E+00 -4.639029050087E+00
 -4.841077610704E+00 -5.038414893323E+00 -5.231041509301E+00 -5.418958869614E+00
 -5.602169150161E+00 -5.780675260347E+00 -5.954480815026E+00 -6.123590109868E+00
 -6.288008100198E+00 -6.447740383304E+00 -6.602793184251E+00 -6.753173345129E+00
 -6.898888317687E+00 -7.039946159262E+00 -7.176355531864E+00 -7.308125704253E+00
 -7.435266556780E+00 -7.557788588764E+00 -7.675702928074E+00 -7.789021342558E+00
 -7.897756252937E+00 -8.001920746651E+00 -8.101528592172E+00 -8.196594253158E+00
 -8.287132901840E+00 -8.373160430925E+00 -8.454693463264E+00 -8.531749358526E+00
 -8.604346216043E+00 -8.672502873059E+00 -8.736238897540E+00 -8.795574574860E+00
 -8.850530887698E+00 -8.901129488627E+00 -8.947392665089E+00 -8.989343296666E+00
 -9.027004804886E+00 -9.060401096134E+00 -9.089556498758E+00 -9.114495695891E+00
 -9.135243656108E+00 -9.151825564727E+00 -9.164266759151E+00 -9.172592672472E+00
 -9.176828790209E+00 -9.177000625891E+00 -9.173133721868E+00 -9.165253682447E+00
 -9.153386247111E+00 -9.137557412074E+00 -9.117793608918E+00 -9.094121949264E+00
 -9.066570544635E+00 -9.035168910491E+00 -8.999948463124E+00 -8.960943117499E+00
 -8.918189993141E+00 -8.871730233982E+00 -8.821609946276E+00 -8.767881256656E+00
 -8.710603489711E+00 -8.649844461281E+00 -8.585681879927E+00 -8.518204844553E+00
 -8.447515421096E+00 -8.373730275384E+00 -8.296982332740E+00 -8.217422427700E+00
 -8.135220899379E+00 -8.050569079762E+00 -7.963680613845E+00 -7.874792541157E+00
 -7.784166058567E+00 -7.692086877366E+00 -7.598865081136E+00 -7.504834385023E+00
 -7.410350694844E+00 -7.315789865181E+00 -7.221544560530E+00 -7.128020133594E+00
 -7.035629450363E+00 -6.944786613543E+00 -6.855899564161E+00 -6.769361575850E+00
 -6.685541562391E+00 -6.604774978181E+00 -6.526172552806E+00 -6.448487948677E+00
 -6.371757339561E+00 -6.295959604964E+00 -6.221077266699E+00 -6.147093260400E+00
 -6.074009673272E+00 -6.001843471305E+00 -5.930585380607E+00 -5.860212730121E+00
 -5.790713205871E+00 -5.722069666056E+00 -5.654265561976E+00 -5.587284259669E+00
 -5.521109404095E+00 -5.455725162779E+00 -5.391116453152E+00 -5.327269136628E+00
 -5.264170170858E+00 -5.201807711822E+00 -5.140171159557E+00 -5.079251144014E+00