<?xml version="1.0" encoding="UTF-8" ?>
<psml version="1.1" energy_unit="hartree" length_unit="bohr"
 uuid="3f83bc80-be62-11e7-480e-ac57de9f0bda"
 xmlns="http://esl.cecam.org/PSML/ns/1.1">
<provenance creator="ONCVPSP-3.3.0+psml-3.3.0-73 (scalar-relativistic)"
 date="2017-10-31">
<annotation action="semilocal-pseudopotential-generation"
 action-cont="projectors-generation" />
<input-file name="oncvpsp-input">
<![CDATA[# atsym z nc nv iexc psfile
Be 4 0 2 4 upf
# n l f
1 0 2.0
2 0 2.0
# lmax
1
# l rc ep ncon nbas qcut
0 1.2 0.0 4 7 10.4
1 1.05 0.0 4 7 10.0
# lloc lpopt rc5 dvloc0
4 5 0.95 0.0
# l nproj debl
0 2 1.0
1 2 1.0
# icmod fcfact
0 0.25
# epsh1 epsh2 depsh
-12.0 12.0 0.02
# rlmax drl
4.0 0.01
 0
]]>
</input-file>
</provenance>
<pseudo-atom-spec atomic-label="Be" atomic-number="4" z-pseudo="4"
 flavor="Hamann&apos;s oncvpsp" relativity="scalar" spin-dft="no"
 core-corrections="no">
<annotation pseudo-energy="-13.9994001345" />
<exchange-correlation>
<annotation oncvpsp-xc-code="4" oncvpsp-xc-type="GGA -- Perdew-Burke-Ernzerhof" />
<libxc-info number-of-functionals="2">
<functional name="Perdew, Burke &amp; Ernzerhof (GGA)" type="exchange" id="101" />
<functional name="Perdew, Burke &amp; Ernzerhof (GGA)" type="correlation"
 id="130" />
</libxc-info>
</exchange-correlation>
<valence-configuration total-valence-charge="4">
<shell n="1" l="s" occupation="2" />
<shell n="2" l="s" occupation="2" />
</valence-configuration>
</pseudo-atom-spec>
<grid npts="457">
<annotation type="sampled from oncvpsp log grid"
 recipe="r(i:1..N) = r1*exp(a*(i-1)) + r=0; resampled"
 recipe-cont="r1: scale; a: step" scale="0.125000000000E-03"
 step="0.119285708653E-01" delta="0.500000000000E-02" rmax="44.1813421228" />
<grid-data>
  0.000000000000E+00  5.045089664318E-03  1.007717068006E-02  1.511736293017E-02
  2.012835760545E-02  2.524864506191E-02  3.055809503800E-02  3.568395144868E-02
  4.068727247651E-02  4.584201536434E-02  5.103737331347E-02  5.614775742254E-02
  6.176984548592E-02  6.714908551389E-02  7.299677779476E-02  7.841276441878E-02
  8.423058948002E-02  8.940718115625E-02  9.490191261456E-02  1.007343358937E-01
  1.069252046495E-01  1.121507391337E-01  1.176316503622E-01  1.233804188347E-01
  1.294101349845E-01  1.357345289867E-01  1.423680020228E-01  1.475549990844E-01
  1.529309777861E-01  1.585028234335E-01  1.642776721897E-01  1.702629202147E-01
  1.764662331383E-01  1.828955558777E-01  1.895591228129E-01  1.964654683334E-01
  2.036234377681E-01  2.110421987141E-01  2.161376015599E-01  2.213560278119E-01
  2.267004477474E-01  2.321739033578E-01  2.377795100805E-01  2.435204585719E-01
  2.494000165237E-01  2.554215305226E-01  2.615884279555E-01  2.679042189601E-01
  2.743724984227E-01  2.809969480246E-01  2.877813383377E-01  2.947295309705E-01
  3.018454807663E-01  3.091332380539E-01  3.165969509535E-01  3.242408677373E-01
  3.320693392479E-01  3.400868213747E-01  3.482978775900E-01  3.567071815465E-01
  3.653195197378E-01  3.741397942224E-01  3.831730254141E-01  3.924243549397E-01
  4.018990485653E-01  4.116024991939E-01  4.215402299344E-01  4.265987126936E-01
  4.317178972460E-01  4.368985120129E-01  4.421412941571E-01  4.474469896869E-01
  4.528163535632E-01  4.582501498060E-01  4.637491516036E-01  4.693141414229E-01
  4.749459111199E-01  4.806452620534E-01  4.864130051980E-01  4.922499612604E-01
  4.981569607955E-01  5.041348443251E-01  5.101844624570E-01  5.163066760065E-01
  5.225023561185E-01  5.287723843920E-01  5.351176530047E-01  5.415390648407E-01
  5.480375336188E-01  5.546139840222E-01  5.612693518305E-01  5.680045840525E-01
  5.748206390611E-01  5.817184867298E-01  5.886991085706E-01  5.957634978734E-01
  6.029126598479E-01  6.101476117661E-01  6.174693831073E-01  6.248790157046E-01
  6.323775638930E-01  6.399660946597E-01  6.476456877956E-01  6.554174360492E-01
  6.632824452818E-01  6.712418346252E-01  6.792967366407E-01  6.874482974804E-01
  6.956976770501E-01  7.040460491747E-01  7.124946017648E-01  7.210445369860E-01
  7.296970714298E-01  7.384534362870E-01  7.473148775224E-01  7.562826560527E-01
  7.653580479253E-01  7.745423445004E-01  7.838368526344E-01  7.932428948661E-01
  8.027618096044E-01  8.123949513197E-01  8.221436907355E-01  8.320094150244E-01
  8.419935280047E-01  8.520974503407E-01  8.623226197448E-01  8.726704911817E-01
  8.831425370759E-01  8.937402475208E-01  9.044651304911E-01  9.153187120570E-01
  9.263025366017E-01  9.374181670409E-01  9.486671850454E-01  9.600511912659E-01
  9.715718055611E-01  9.832306672278E-01  9.950294352346E-01  1.006969788457E+00
  1.019053425919E+00  1.031282067030E+00  1.043657451834E+00  1.056181341256E+00
  1.068855517351E+00  1.081681783560E+00  1.094661964962E+00  1.107797908542E+00
  1.121091483444E+00  1.134544581246E+00  1.148159116221E+00  1.161937025615E+00
  1.175880269923E+00  1.189990833162E+00  1.204270723160E+00  1.218721971838E+00
  1.233346635500E+00  1.248146795126E+00  1.263124556667E+00  1.278282051347E+00
  1.293621435963E+00  1.309144893195E+00  1.324854631913E+00  1.340752887496E+00
  1.356841922146E+00  1.373124025212E+00  1.389601513514E+00  1.406276731677E+00
  1.423152052457E+00  1.440229877086E+00  1.457512635611E+00  1.475002787239E+00
  1.492702820685E+00  1.510615254534E+00  1.528742637588E+00  1.547087549239E+00
  1.565652599830E+00  1.584440431028E+00  1.603453716200E+00  1.622695160795E+00
  1.642167502724E+00  1.661873512757E+00  1.681815994910E+00  1.701997786849E+00
  1.722421760291E+00  1.743090821415E+00  1.764007911272E+00  1.785176006207E+00
  1.806598118281E+00  1.828277295701E+00  1.850216623249E+00  1.872419222728E+00
  1.894888253401E+00  1.917626912442E+00  1.940638435391E+00  1.963926096616E+00
  1.987493209775E+00  2.011343128292E+00  2.035479245832E+00  2.059904996782E+00
  2.084623856743E+00  2.109639343024E+00  2.134955015140E+00  2.160574475322E+00
  2.186501369026E+00  2.212739385454E+00  2.239292258080E+00  2.266163765177E+00
  2.293357730359E+00  2.320878023123E+00  2.348728559401E+00  2.376913302113E+00
  2.405436261739E+00  2.434301496880E+00  2.463513114842E+00  2.493075272220E+00
  2.522992175487E+00  2.553268081593E+00  2.583907298572E+00  2.614914186155E+00
  2.646293156389E+00  2.678048674265E+00  2.710185258356E+00  2.742707481457E+00
  2.775619971234E+00  2.808927410889E+00  2.842634539820E+00  2.876746154297E+00
  2.911267108149E+00  2.946202313447E+00  2.981556741208E+00  3.017335422103E+00
  3.053543447168E+00  3.090185968534E+00  3.127268200156E+00  3.164795418558E+00
  3.202772963581E+00  3.241206239144E+00  3.280100714014E+00  3.319461922582E+00
  3.359295465653E+00  3.399607011241E+00  3.440402295375E+00  3.481687122920E+00
  3.523467368395E+00  3.565748976816E+00  3.608537964538E+00  3.651840420112E+00
  3.695662505153E+00  3.740010455215E+00  3.784890580678E+00  3.830309267646E+00
  3.876272978858E+00  3.922788254604E+00  3.969861713659E+00  4.017500054223E+00
  4.065710054874E+00  4.114498575532E+00  4.163872558439E+00  4.213839029140E+00
  4.264405097490E+00  4.315577958659E+00  4.367364894163E+00  4.419773272893E+00
  4.472810552168E+00  4.526484278794E+00  4.580802090140E+00  4.635771715221E+00
  4.691400975804E+00  4.747697787514E+00  4.804670160964E+00  4.862326202895E+00
  4.920674117330E+00  4.979722206738E+00  5.039478873219E+00  5.099952619697E+00
  5.161152051134E+00  5.223085875747E+00  5.285762906256E+00  5.349192061131E+00
  5.413382365865E+00  5.478342954255E+00  5.544083069706E+00  5.610612066543E+00
  5.677939411341E+00  5.746074684278E+00  5.815027580489E+00  5.884807911455E+00
  5.955425606392E+00  6.026890713669E+00  6.099213402233E+00  6.172403963060E+00
  6.246472810616E+00  6.321430484344E+00  6.397287650156E+00  6.474055101958E+00
  6.551743763181E+00  6.630364688340E+00  6.709929064600E+00  6.790448213375E+00
  6.871933591935E+00  6.954396795039E+00  7.037849556579E+00  7.122303751258E+00
  7.207771396273E+00  7.294264653028E+00  7.381795828865E+00  7.470377378811E+00
  7.560021907357E+00  7.650742170245E+00  7.742551076288E+00  7.835461689203E+00
  7.929487229474E+00  8.024641076228E+00  8.120936769142E+00  8.218388010372E+00
  8.317008666496E+00  8.416812770494E+00  8.517814523740E+00  8.620028298025E+00
  8.723468637602E+00  8.828150261253E+00  8.934088064388E+00  9.041297121160E+00
  9.149792686614E+00  9.259590198854E+00  9.370705281240E+00  9.483153744615E+00
  9.596951589550E+00  9.712115008625E+00  9.828660388728E+00  9.946604313393E+00
  1.006596356515E+01  1.018675512794E+01  1.030899618947E+01  1.043270414374E+01
  1.055789659347E+01  1.068459135259E+01  1.081280644882E+01  1.094256012621E+01
  1.107387084772E+01  1.120675729790E+01  1.134123838547E+01  1.147733324610E+01
  1.161506124505E+01  1.175444197999E+01  1.189549528375E+01  1.203824122715E+01
  1.218270012188E+01  1.232889252334E+01  1.247683923362E+01  1.262656130443E+01
  1.277808004008E+01  1.293141700056E+01  1.308659400457E+01  1.324363313262E+01
  1.340255673021E+01  1.356338741098E+01  1.372614805991E+01  1.389086183663E+01
  1.405755217867E+01  1.422624280481E+01  1.439695771847E+01  1.456972121109E+01
  1.474455786562E+01  1.492149256001E+01  1.510055047073E+01  1.528175707638E+01
  1.546513816130E+01  1.565071981923E+01  1.583852845706E+01  1.602859079855E+01
  1.622093388813E+01  1.641558509479E+01  1.661257211592E+01  1.681192298131E+01
  1.701366605709E+01  1.721783004978E+01  1.742444401037E+01  1.763353733850E+01
  1.784513978656E+01  1.805928146400E+01  1.827599284157E+01  1.849530475566E+01
  1.871724841273E+01  1.894185539369E+01  1.916915765841E+01  1.939918755031E+01
  1.963197780091E+01  1.986756153453E+01  2.010597227294E+01  2.034724394022E+01
  2.059141086750E+01  2.083850779791E+01  2.108856989148E+01  2.134163273018E+01
  2.159773232294E+01  2.185690511082E+01  2.211918797215E+01  2.238461822781E+01
  2.265323364655E+01  2.292507245031E+01  2.320017331971E+01  2.347857539955E+01
  2.376031830434E+01  2.404544212399E+01  2.433398742948E+01  2.462599527863E+01
  2.492150722198E+01  2.522056530864E+01  2.552321209235E+01  2.582949063745E+01
  2.613944452510E+01  2.645311785940E+01  2.677055527372E+01  2.709180193700E+01
  2.741690356025E+01  2.774590640297E+01  2.807885727980E+01  2.841580356716E+01
  2.875679320997E+01  2.910187472849E+01  2.945109722523E+01  2.980451039193E+01
  3.016216451664E+01  3.052411049083E+01  3.089039981672E+01  3.126108461453E+01
  3.163621762990E+01  3.201585224146E+01  3.240004246836E+01  3.278884297798E+01
  3.318230909371E+01  3.358049680284E+01  3.398346276447E+01  3.439126431764E+01
  3.480395948946E+01  3.522160700333E+01  3.564426628737E+01  3.607199748282E+01
  3.650486145261E+01  3.694291979004E+01  3.738623482752E+01  3.783486964545E+01
  3.828888808120E+01  3.874835473817E+01  3.921333499503E+01  3.968389501497E+01
  4.016010175515E+01  4.064202297621E+01  4.112972725193E+01  4.162328397895E+01
  4.212276338670E+01  4.262823654734E+01  4.313977538591E+01  4.365745269054E+01
  4.418134212282E+01
</grid-data>
</grid>
<valence-charge total-charge="4" is-unscreening-charge="yes"
 rescaled-to-z-pseudo="no">
<radfunc>
<data npts="457">
  7.452172359567E+01  7.450863676733E+01  7.446952455165E+01  7.440430261623E+01
  7.431368562583E+01  7.419464686680E+01  7.404311932944E+01  7.386986270960E+01
  7.367537967743E+01  7.344901642505E+01  7.319442679707E+01  7.291837826929E+01
  7.258569211542E+01  7.223932579988E+01  7.183216625454E+01  7.142708702670E+01
  7.096254707255E+01  7.052410619291E+01  7.003341062056E+01  6.948469765455E+01
  6.887169318388E+01  6.833045007796E+01  6.773999964039E+01  6.709641067589E+01
  6.639555091009E+01  6.563310203816E+01  6.480458204751E+01  6.413706076023E+01
  6.342779780788E+01  6.267479350656E+01  6.187604598274E+01  6.102956852221E+01
  6.013340984822E+01  5.918567758911E+01  5.818456518500E+01  5.712838246012E+01
  5.601559005186E+01  5.484483783477E+01  5.403157325178E+01  5.319178126042E+01
  5.232525859763E+01  5.143187033059E+01  5.051155704376E+01  4.956434229884E+01
  4.859034032826E+01  4.758976391308E+01  4.656293238595E+01  4.551027968741E+01
  4.443236239197E+01  4.332986760648E+01  4.220362062943E+01  4.105459224523E+01
  3.988390551225E+01  3.869284188884E+01  3.748284652682E+01  3.625553254802E+01
  3.501268410739E+01  3.375625803557E+01  3.248838384630E+01  3.121136188969E+01
  2.992765943272E+01  2.863990445376E+01  2.735087694974E+01  2.606349757338E+01
  2.478081344550E+01  2.350598102336E+01  2.224224595209E+01  2.161557293111E+01
  2.099291988267E+01  2.037470678336E+01  1.976135430673E+01  1.915328285230E+01
  1.855091153516E+01  1.795465713889E+01  1.736493303468E+01  1.678214807005E+01
  1.620670543116E+01  1.563900148267E+01  1.507942459008E+01  1.452835392943E+01
  1.398615828985E+01  1.345319487499E+01  1.292980810925E+01  1.241632845567E+01
  1.191307125220E+01  1.142033557355E+01  1.093840312600E+01  1.046753718281E+01
  1.000798156781E+01  9.559959695071E+00  9.123673672340E+00  8.699303476000E+00
  8.287006205044E+00  7.886915421416E+00  7.499140583699E+00  7.123766580723E+00
  6.760853371191E+00  6.410435734785E+00  6.072523139578E+00  5.747099729762E+00
  5.434124436857E+00  5.133531216629E+00  4.845229412931E+00  4.569104248567E+00
  4.305017442198E+00  4.052807949073E+00  3.812292822196E+00  3.583268189306E+00
  3.365510339815E+00  3.158776914670E+00  2.962808190922E+00  2.777328451713E+00
  2.602047431329E+00  2.436661824091E+00  2.280856845000E+00  2.134307829427E+00
  1.996681858584E+00  1.867639397177E+00  1.746835929470E+00  1.633923579990E+00
  1.528552705326E+00  1.430373443857E+00  1.339037210880E+00  1.254198127335E+00
  1.175514371352E+00  1.102649442911E+00  1.035273333224E+00  9.730635918042E-01
  9.157062856906E-01  8.628968468477E-01  8.143408053436E-01  7.697544075035E-01
  7.288651197920E-01  6.914120206749E-01  6.571460841024E-01  6.258303595322E-01
  5.972400545149E-01  5.711625268047E-01  5.473971936783E-01  5.257553666638E-01
  5.060600201956E-01  4.881455028096E-01  4.718571993620E-01  4.570511524381E-01
  4.435936506121E-01  4.313607905554E-01  4.202380192046E-01  4.101196613031E-01
  4.009084366829E-01  3.925149706797E-01  3.848573001476E-01  3.778603767055E-01
  3.714555681846E-01  3.655801587976E-01  3.601768483653E-01  3.551931812019E-01
  3.505807432245E-01  3.462943495122E-01  3.422920391851E-01  3.385349223283E-01
  3.349870673839E-01  3.316153529432E-01  3.283893174982E-01  3.252810105791E-01
  3.222648493698E-01  3.193174827552E-01  3.164176634330E-01  3.135461279492E-01
  3.106854841209E-01  3.078201051545E-01  3.049360297590E-01  3.020208676089E-01
  2.990637095985E-01  2.960550424188E-01  2.929866670618E-01  2.898516209256E-01
  2.866441032409E-01  2.833594035824E-01  2.799938332547E-01  2.765446593719E-01
  2.730100414663E-01  2.693889704832E-01  2.656812100322E-01  2.618872397846E-01
  2.580082009172E-01  2.540458435204E-01  2.500024758987E-01  2.458809157049E-01
  2.416844428601E-01  2.374167542192E-01  2.330819199521E-01  2.286843416137E-01
  2.242287118845E-01  2.197199759641E-01  2.151632946055E-01  2.105640087762E-01
  2.059276059366E-01  2.012596879223E-01  1.965659404201E-01  1.918521040222E-01
  1.871239468453E-01  1.823872386982E-01  1.776477267772E-01  1.729111128717E-01
  1.681830320551E-01  1.634690328376E-01  1.587745587540E-01  1.541049313571E-01
  1.494653345881E-01  1.448608004899E-01  1.402961962308E-01  1.357762124031E-01
  1.313053525601E-01  1.268879239532E-01  1.225280294314E-01  1.182295604619E-01
  1.139961912338E-01  1.098313738002E-01  1.057383342218E-01  1.017200696653E-01
  9.777934641966E-02  9.391869878444E-02  9.014042879162E-02  8.644660671846E-02
  8.283907235174E-02  7.931943696352E-02  7.588908596010E-02  7.254918216639E-02
  6.930066970930E-02  6.614427846505E-02  6.308052903603E-02  6.010973822447E-02
  5.723202497094E-02  5.444731672659E-02  5.175535622889E-02  4.915570865116E-02
  4.664776909603E-02  4.423077040343E-02  4.190379124303E-02  3.966576446035E-02
  3.751548564363E-02  3.545162188841E-02  3.347272070349E-02  3.157721904858E-02
  2.976345245280E-02  2.802966417951E-02  2.637401439846E-02  2.479458932564E-02
  2.328941029071E-02  2.185644269178E-02  2.049360479765E-02  1.919877635865E-02
  1.796980698842E-02  1.680452428094E-02  1.570074162943E-02  1.465626571655E-02
  1.366890364842E-02  1.273646970844E-02  1.185679171071E-02  1.102771693664E-02
  1.024711764232E-02  9.512896128169E-03  8.822989366472E-03  8.175373185992E-03
  7.568066016684E-03  6.999132200814E-03  6.466684879967E-03  5.968888470267E-03
  5.503960740625E-03  5.070174511029E-03  4.665858989691E-03  4.289400769393E-03
  3.939244504469E-03  3.613893290749E-03  3.311908771220E-03  3.031910990451E-03
  2.772578020714E-03  2.532645382466E-03  2.310905281267E-03  2.106205682661E-03
  1.917449245245E-03  1.743592131729E-03  1.583642716075E-03  1.436660203807E-03
  1.301753181350E-03  1.178078108827E-03  1.064837769433E-03  9.612796872328E-04
  8.666945239085E-04  7.804144638093E-04  7.018115954930E-04  6.302962968944E-04
  5.653156302956E-04  5.063517524037E-04  4.529203440766E-04  4.045690635658E-04
  3.608760265732E-04  3.214483159275E-04  2.859205232748E-04  2.539533248399E-04
  2.252320930270E-04  1.994655453970E-04  1.763844323572E-04  1.557402647352E-04
  1.373040822535E-04  1.208652637894E-04  1.062303801720E-04  9.322209014113E-05
  8.167807996251E-05  7.145004706195E-05  6.240272790194E-05  5.441297018375E-05
  4.736884931123E-05  4.116882890451E-05  3.572096500252E-05  3.094215344519E-05
  2.675741978115E-05  2.309925090757E-05  1.990696751622E-05  1.712613629665E-05
  1.470802073501E-05  1.260906924617E-05  1.079043928888E-05  9.217556039378E-06
  7.859704138381E-06  6.689650979465E-06  5.683299974104E-06  4.819372208823E-06
  4.079114902900E-06  3.446035079909E-06  2.905656882131E-06  2.445300982642E-06
  2.053884584420E-06  1.721740538232E-06  1.440454159981E-06  1.202716382762E-06
  1.002191937814E-06  8.334013209658E-07  6.916153660252E-07  5.727613129781E-07
  4.733393260529E-07  3.903484838740E-07  3.212213304858E-07  2.637661413691E-07
  2.161161222248E-07  1.766848198580E-07  1.441270836317E-07  1.173049724063E-07
  9.525805545784E-08  7.717760642906E-08  6.238423683824E-08  5.030856001703E-08
  4.047451757535E-08  3.248503864553E-08  2.600973730872E-08  2.077438585346E-08
  1.655193097529E-08  1.315484682895E-08  1.042864313459E-08  8.246368466536E-09
  6.503968572193E-09  5.116377235994E-09  4.014232973968E-09  3.141128871399E-09
  2.451315307223E-09  1.907786286752E-09  1.480689765027E-09  1.146010814944E-09
  8.844838979380E-10  6.806969429238E-10  5.223555354208E-10  3.996803593986E-10
  3.049152070082E-10  2.319264560476E-10  1.758779840826E-10  1.329681068554E-10
  1.002173554374E-10  7.529779371380E-11  5.639617157294E-11  4.210455060376E-11
  3.133316424518E-11  2.324121479924E-11  1.718209309450E-11  1.266015683028E-11
  9.296741476678E-12  6.803520906538E-12  4.961699014877E-12  3.605811524791E-12
  2.611160121826E-12  1.884098434318E-12  1.354549144970E-12  9.702603672909E-13
  6.924129462870E-13  4.922732103535E-13  3.486517815648E-13  2.459815438431E-13
  1.728694059711E-13  1.210092372460E-13  8.436905917512E-14  5.858567853820E-14
  4.051560389103E-14  2.790323272989E-14  1.913667910947E-14  1.306882992071E-14
  8.886748259033E-15  6.016761276819E-15  4.055774790804E-15  2.721780953005E-15
  1.818350742618E-15  1.209271651708E-15  8.005124735277E-16  5.274561427912E-16
  3.459030046897E-16  2.257602390493E-16  1.466360765655E-16  9.477837734526E-17
  6.095751653827E-17  3.900937551474E-17  2.483752675760E-17  1.573326161636E-17
  9.914562531777E-18  6.215066953024E-18  3.875325392305E-18  2.403437882346E-18
  1.482490496788E-18  9.094038782825E-19  5.547518832699E-19  3.365028464579E-19
  2.029537959599E-19  1.217010184772E-19  7.255202220933E-20  4.299645443418E-20
  0.000000000000E+00  0.000000000000E+00  0.000000000000E+00  0.000000000000E+00
  0.000000000000E+00  0.000000000000E+00  0.000000000000E+00  0.000000000000E+00
  0.000000000000E+00  0.000000000000E+00  0.000000000000E+00  0.000000000000E+00
  0.000000000000E+00  0.000000000000E+00  0.000000000000E+00  0.000000000000E+00
  0.000000000000E+00  0.000000000000E+00  0.000000000000E+00  0.000000000000E+00
  0.000000000000E+00  0.000000000000E+00  0.000000000000E+00  0.000000000000E+00
  0.000000000000E+00
</data>
</radfunc>
</valence-charge>
<semilocal-potentials set="scalar_relativistic">
<slps n="1" l="s" rc="1.20427072316" eref="-3.90325685444">
<radfunc>
<data npts="256">
 -1.868948199435E+01 -1.868853448193E+01 -1.868570242575E+01 -1.868097885029E+01
 -1.867441407311E+01 -1.866578665634E+01 -1.865479853334E+01 -1.864222619366E+01
 -1.862810244074E+01 -1.861164821814E+01 -1.859312196566E+01 -1.857300905281E+01
 -1.854873343849E+01 -1.852341597131E+01 -1.849359539786E+01 -1.846386054545E+01
 -1.842967529070E+01 -1.839732283546E+01 -1.836100871060E+01 -1.832026247194E+01
 -1.827456060740E+01 -1.823404197024E+01 -1.818965274427E+01 -1.814103653735E+01
 -1.808780580613E+01 -1.802953924877E+01 -1.796577896996E+01 -1.791405576958E+01
 -1.785873771405E+01 -1.779958470487E+01 -1.773634126911E+01 -1.766873559352E+01
 -1.759647850118E+01 -1.751926237016E+01 -1.743675999459E+01 -1.734862338985E+01
 -1.725448254504E+01 -1.715394412774E+01 -1.708315895039E+01 -1.700921495213E+01
 -1.693197659282E+01 -1.685130282659E+01 -1.676704691903E+01 -1.667905626573E+01
 -1.658717221371E+01 -1.649122988731E+01 -1.639105802019E+01 -1.628647879566E+01
 -1.617730769758E+01 -1.606335337446E+01 -1.594441751973E+01 -1.582029477158E+01
 -1.569077263608E+01 -1.555563143774E+01 -1.541464430225E+01 -1.526757717637E+01
 -1.511418889062E+01 -1.495423127065E+01 -1.478744930362E+01 -1.461358136603E+01
 -1.443235951965E+01 -1.424350988214E+01 -1.404675307886E+01 -1.384180478227E+01
 -1.362837634632E+01 -1.340617554448E+01 -1.317490742511E+01 -1.305578044528E+01
 -1.293427530655E+01 -1.281035484584E+01 -1.268398195146E+01 -1.255511961488E+01
 -1.242373098919E+01 -1.228977945591E+01 -1.215322870211E+01 -1.201404281030E+01
 -1.187218636412E+01 -1.172762457343E+01 -1.158032342312E+01 -1.143024985073E+01
 -1.127737195870E+01 -1.112165926797E+01 -1.096308302038E+01 -1.080161653809E+01
 -1.063723564883E+01 -1.046991918642E+01 -1.029964957585E+01 -1.012641351260E+01
 -9.950202744964E+00 -9.771014967524E+00 -9.588854832252E+00 -9.403735082002E+00
 -9.215677808407E+00 -9.024715833315E+00 -8.830894209287E+00 -8.634271830834E+00
 -8.434923143837E+00 -8.232939936309E+00 -8.028433189405E+00 -7.821534963506E+00
 -7.612400290604E+00 -7.401209041080E+00 -7.188167730613E+00 -6.973511231308E+00
 -6.757504350342E+00 -6.540443239433E+00 -6.322656599121E+00 -6.104506643149E+00
 -5.886389789941E+00 -5.668737050013E+00 -5.452014080040E+00 -5.236720876006E+00
 -5.023391079199E+00 -4.812590869916E+00 -4.604917424662E+00 -4.400996913652E+00
 -4.201482017197E+00 -4.007048942634E+00 -3.818393929004E+00 -3.636229235572E+00
 -3.461278623934E+00 -3.294272362706E+00 -3.135941809440E+00 -2.987013655957E+00
 -2.848203958743E+00 -2.720212110034E+00 -2.603714928060E+00 -2.499361039467E+00
 -2.407765666938E+00 -2.329505782804E+00 -2.265115296192E+00 -2.215079453979E+00
 -2.179826914307E+00 -2.159717004966E+00 -2.155018628072E+00 -2.165876433971E+00
 -2.192259858537E+00 -2.233892289040E+00 -2.290161987393E+00 -2.360024003063E+00
 -2.441912293548E+00 -2.533690355182E+00 -2.632671084450E+00 -2.735726279748E+00
 -2.839481455780E+00 -2.940559583735E+00 -3.035813135008E+00 -3.122482154645E+00
 -3.198240436559E+00 -3.261130636104E+00 -3.309423567330E+00 -3.341453354240E+00
 -3.355476526034E+00 -3.349587793186E+00 -3.321690506678E+00 -3.282116759633E+00
 -3.243195335576E+00 -3.204742424586E+00 -3.166742669359E+00 -3.129194175639E+00
 -3.092090795242E+00 -3.055427212282E+00 -3.019198163827E+00 -2.983398485336E+00
 -2.948023095703E+00 -2.913066985684E+00 -2.878525210096E+00 -2.844392882792E+00
 -2.810665173629E+00 -2.777337306757E+00 -2.744404559702E+00 -2.711862262866E+00
 -2.679705799243E+00 -2.647930604184E+00 -2.616532165170E+00 -2.585506021532E+00
 -2.554847764133E+00 -2.524553034998E+00 -2.494617526905E+00 -2.465036982950E+00
 -2.435807196079E+00 -2.406924008616E+00 -2.378383311769E+00 -2.350181045127E+00
 -2.322313196161E+00 -2.294775799707E+00 -2.267564937458E+00 -2.240676737449E+00
 -2.214107373536E+00 -2.187853064889E+00 -2.161910075468E+00 -2.136274713515E+00
 -2.110943331041E+00 -2.085912323316E+00 -2.061178128362E+00 -2.036737226455E+00
 -2.012586139622E+00 -1.988721431149E+00 -1.965139705096E+00 -1.941837605807E+00
 -1.918811817434E+00 -1.896059063465E+00 -1.873576106255E+00 -1.851359746564E+00
 -1.829406823098E+00 -1.807714212062E+00 -1.786278826708E+00 -1.765097616900E+00
 -1.744167568676E+00 -1.723485703819E+00 -1.703049079430E+00 -1.682854787513E+00
 -1.662899954558E+00 -1.643181741130E+00 -1.623697341467E+00 -1.604443983082E+00
 -1.585418926363E+00 -1.566619464190E+00 -1.548042921543E+00 -1.529686655125E+00
 -1.511548052985E+00 -1.493624534146E+00 -1.475913548238E+00 -1.458412575134E+00
 -1.441119124593E+00 -1.424030735900E+00 -1.407144977523E+00 -1.390459446760E+00
 -1.373971769401E+00 -1.357679599384E+00 -1.341580618468E+00 -1.325672535894E+00
 -1.309953088065E+00 -1.294420038217E+00 -1.279071176105E+00 -1.263904317686E+00
 -1.248917304806E+00 -1.234108004895E+00 -1.219474310657E+00 -1.205014139822E+00
 -1.190725434644E+00 -1.176606162002E+00 -1.162654312711E+00 -1.148867901452E+00
 -1.135244966434E+00 -1.121783569126E+00 -1.108481793975E+00 -1.095337748139E+00
 -1.082349561219E+00 -1.069515384988E+00 -1.056833393139E+00 -1.044301781017E+00
 -1.031918765369E+00 -1.019682584086E+00 -1.007591495961E+00 -9.956437804332E-01
</data>
</radfunc>
</slps>
<slps n="2" l="p" rc="1.05618134126" eref="-0.709219869366E-08">
<radfunc>
<data npts="256">
 -1.347213848809E+01 -1.347100865674E+01 -1.346763253587E+01 -1.346200443715E+01
 -1.345418863413E+01 -1.344392788055E+01 -1.343087722916E+01 -1.341596944118E+01
 -1.339925327038E+01 -1.337982069067E+01 -1.335799511130E+01 -1.333436545072E+01
 -1.330593600450E+01 -1.327639272836E+01 -1.324173467679E+01 -1.320732780268E+01
 -1.316795930262E+01 -1.313088770058E+01 -1.308949333560E+01 -1.304332110373E+01
 -1.299188009035E+01 -1.294658112905E+01 -1.289728835784E+01 -1.284370288922E+01
 -1.278551354943E+01 -1.272239841363E+01 -1.265402684500E+01 -1.259909620908E+01
 -1.254087619495E+01 -1.247922352696E+01 -1.241399599033E+01 -1.234505362730E+01
 -1.227226007827E+01 -1.219548406829E+01 -1.211460103440E+01 -1.202949488297E+01
 -1.194005985857E+01 -1.184620249515E+01 -1.178113431324E+01 -1.171404559216E+01
 -1.164492027006E+01 -1.157374598979E+01 -1.150051431887E+01 -1.142522094289E+01
 -1.134786582408E+01 -1.126845331579E+01 -1.118699222252E+01 -1.110349579419E+01
 -1.101798164205E+01 -1.093047156319E+01 -1.084099125940E+01 -1.074956993583E+01
 -1.065623976479E+01 -1.056103519986E+01 -1.046399212652E+01 -1.036514683645E+01
 -1.026453481467E+01 -1.016218933174E+01 -1.005813983633E+01 -9.952410148630E+00
 -9.845016460533E+00 -9.735965155402E+00 -9.625250468313E+00 -9.512852016968E+00
 -9.398732244325E+00 -9.282833826742E+00 -9.165077116772E+00 -9.105470304866E+00
 -9.045357709046E+00 -8.984722049252E+00 -8.923544242974E+00 -8.861803360373E+00
 -8.799476590112E+00 -8.736539218041E+00 -8.672964621220E+00 -8.608724280124E+00
 -8.543787812298E+00 -8.478123031215E+00 -8.411696034584E+00 -8.344471326878E+00
 -8.276411981387E+00 -8.207479847596E+00 -8.137635810137E+00 -8.066840105869E+00
 -7.995052705832E+00 -7.922233768727E+00 -7.848344172244E+00 -7.773346127789E+00
 -7.697203883045E+00 -7.619884515113E+00 -7.541358814777E+00 -7.461602259695E+00
 -7.380596070983E+00 -7.298328343803E+00 -7.214795238299E+00 -7.130002212580E+00
 -7.043965274687E+00 -6.956712225671E+00 -6.868283861425E+00 -6.778735096812E+00
 -6.688135972332E+00 -6.596572501190E+00 -6.504147313436E+00 -6.410980054005E+00
 -6.317207493148E+00 -6.222983310938E+00 -6.128477522346E+00 -6.033875515689E+00
 -5.939376684992E+00 -5.845192645847E+00 -5.751545034430E+00 -5.658662900411E+00
 -5.566779716221E+00 -5.476130037550E+00 -5.386945862917E+00 -5.299452753716E+00
 -5.213865790490E+00 -5.130385456607E+00 -5.049193557366E+00 -4.970449301308E+00
 -4.894285691658E+00 -4.820806399534E+00 -4.750083316695E+00 -4.682155012927E+00
 -4.617026348774E+00 -4.554669512393E+00 -4.495026749387E+00 -4.438015019473E+00
 -4.383532717399E+00 -4.331468400456E+00 -4.281711123446E+00 -4.234161442190E+00
 -4.188741370237E+00 -4.145400571733E+00 -4.104114969125E+00 -4.064873056857E+00
 -4.027645140929E+00 -3.992332361140E+00 -3.958696692136E+00 -3.926280708700E+00
 -3.894335881788E+00 -3.861787259968E+00 -3.827264816471E+00 -3.789221440638E+00
 -3.748352825293E+00 -3.706364279775E+00 -3.663198075439E+00 -3.619148787034E+00
 -3.574713651530E+00 -3.530440778845E+00 -3.486787486737E+00 -3.444036294022E+00
 -3.402282915618E+00 -3.361479921313E+00 -3.321489771683E+00 -3.282116759633E+00
 -3.243195335576E+00 -3.204742424586E+00 -3.166742669359E+00 -3.129194175639E+00
 -3.092090795242E+00 -3.055427212282E+00 -3.019198163827E+00 -2.983398485336E+00
 -2.948023095703E+00 -2.913066985684E+00 -2.878525210096E+00 -2.844392882792E+00
 -2.810665173629E+00 -2.777337306757E+00 -2.744404559702E+00 -2.711862262866E+00
 -2.679705799243E+00 -2.647930604184E+00 -2.616532165170E+00 -2.585506021532E+00
 -2.554847764133E+00 -2.524553034998E+00 -2.494617526905E+00 -2.465036982950E+00
 -2.435807196079E+00 -2.406924008616E+00 -2.378383311769E+00 -2.350181045127E+00
 -2.322313196161E+00 -2.294775799707E+00 -2.267564937458E+00 -2.240676737449E+00
 -2.214107373536E+00 -2.187853064889E+00 -2.161910075468E+00 -2.136274713515E+00
 -2.110943331041E+00 -2.085912323316E+00 -2.061178128362E+00 -2.036737226455E+00
 -2.012586139622E+00 -1.988721431149E+00 -1.965139705096E+00 -1.941837605807E+00
 -1.918811817434E+00 -1.896059063465E+00 -1.873576106255E+00 -1.851359746564E+00