<?xml version="1.0" encoding="UTF-8" ?>
<psml version="1.1" energy_unit="hartree" length_unit="bohr"
 uuid="16df63e0-be41-11e7-7849-1609ef5c1bc4"
 xmlns="http://esl.cecam.org/PSML/ns/1.1">
<provenance creator="ONCVPSP-3.3.0+psml-3.3.0-73 (scalar-relativistic)"
 date="2017-10-31">
<annotation action="semilocal-pseudopotential-generation"
 action-cont="projectors-generation" />
<input-file name="oncvpsp-input">
<![CDATA[# atsym z nc nv iexc psfile
Be 4 0 2 4 upf
# n l f
1 0 2.0
2 0 2.0
# lmax
1
# l rc ep ncon nbas qcut
0 1.35 0.0 4 8 9.2
1 1.1 0.0 4 8 9.4
# lloc lpopt rc5 dvloc0
4 5 0.95 0.0
# l nproj debl
0 2 1.0
1 2 1.0
# icmod fcfact
0 0.25
# epsh1 epsh2 depsh
-12.0 12.0 0.02
# rlmax drl
4.0 0.01
 0
]]>
</input-file>
</provenance>
<pseudo-atom-spec atomic-label="Be" atomic-number="4" z-pseudo="4"
 flavor="Hamann&apos;s oncvpsp" relativity="scalar" spin-dft="no"
 core-corrections="no">
<annotation pseudo-energy="-13.8180099072" />
<exchange-correlation>
<annotation oncvpsp-xc-code="4" oncvpsp-xc-type="GGA -- Perdew-Burke-Ernzerhof" />
<libxc-info number-of-functionals="2">
<functional name="Perdew, Burke &amp; Ernzerhof (GGA)" type="exchange" id="101" />
<functional name="Perdew, Burke &amp; Ernzerhof (GGA)" type="correlation"
 id="130" />
</libxc-info>
</exchange-correlation>
<valence-configuration total-valence-charge="4">
<shell n="1" l="s" occupation="2" />
<shell n="2" l="s" occupation="2" />
</valence-configuration>
</pseudo-atom-spec>
<grid npts="457">
<annotation type="sampled from oncvpsp log grid"
 recipe="r(i:1..N) = r1*exp(a*(i-1)) + r=0; resampled"
 recipe-cont="r1: scale; a: step" scale="0.125000000000E-03"
 step="0.119285708653E-01" delta="0.500000000000E-02" rmax="44.1813421228" />
<grid-data>
  0.000000000000E+00  5.045089664318E-03  1.007717068006E-02  1.511736293017E-02
  2.012835760545E-02  2.524864506191E-02  3.055809503800E-02  3.568395144868E-02
  4.068727247651E-02  4.584201536434E-02  5.103737331347E-02  5.614775742254E-02
  6.176984548592E-02  6.714908551389E-02  7.299677779476E-02  7.841276441878E-02
  8.423058948002E-02  8.940718115625E-02  9.490191261456E-02  1.007343358937E-01
  1.069252046495E-01  1.121507391337E-01  1.176316503622E-01  1.233804188347E-01
  1.294101349845E-01  1.357345289867E-01  1.423680020228E-01  1.475549990844E-01
  1.529309777861E-01  1.585028234335E-01  1.642776721897E-01  1.702629202147E-01
  1.764662331383E-01  1.828955558777E-01  1.895591228129E-01  1.964654683334E-01
  2.036234377681E-01  2.110421987141E-01  2.161376015599E-01  2.213560278119E-01
  2.267004477474E-01  2.321739033578E-01  2.377795100805E-01  2.435204585719E-01
  2.494000165237E-01  2.554215305226E-01  2.615884279555E-01  2.679042189601E-01
  2.743724984227E-01  2.809969480246E-01  2.877813383377E-01  2.947295309705E-01
  3.018454807663E-01  3.091332380539E-01  3.165969509535E-01  3.242408677373E-01
  3.320693392479E-01  3.400868213747E-01  3.482978775900E-01  3.567071815465E-01
  3.653195197378E-01  3.741397942224E-01  3.831730254141E-01  3.924243549397E-01
  4.018990485653E-01  4.116024991939E-01  4.215402299344E-01  4.265987126936E-01
  4.317178972460E-01  4.368985120129E-01  4.421412941571E-01  4.474469896869E-01
  4.528163535632E-01  4.582501498060E-01  4.637491516036E-01  4.693141414229E-01
  4.749459111199E-01  4.806452620534E-01  4.864130051980E-01  4.922499612604E-01
  4.981569607955E-01  5.041348443251E-01  5.101844624570E-01  5.163066760065E-01
  5.225023561185E-01  5.287723843920E-01  5.351176530047E-01  5.415390648407E-01
  5.480375336188E-01  5.546139840222E-01  5.612693518305E-01  5.680045840525E-01
  5.748206390611E-01  5.817184867298E-01  5.886991085706E-01  5.957634978734E-01
  6.029126598479E-01  6.101476117661E-01  6.174693831073E-01  6.248790157046E-01
  6.323775638930E-01  6.399660946597E-01  6.476456877956E-01  6.554174360492E-01
  6.632824452818E-01  6.712418346252E-01  6.792967366407E-01  6.874482974804E-01
  6.956976770501E-01  7.040460491747E-01  7.124946017648E-01  7.210445369860E-01
  7.296970714298E-01  7.384534362870E-01  7.473148775224E-01  7.562826560527E-01
  7.653580479253E-01  7.745423445004E-01  7.838368526344E-01  7.932428948661E-01
  8.027618096044E-01  8.123949513197E-01  8.221436907355E-01  8.320094150244E-01
  8.419935280047E-01  8.520974503407E-01  8.623226197448E-01  8.726704911817E-01
  8.831425370759E-01  8.937402475208E-01  9.044651304911E-01  9.153187120570E-01
  9.263025366017E-01  9.374181670409E-01  9.486671850454E-01  9.600511912659E-01
  9.715718055611E-01  9.832306672278E-01  9.950294352346E-01  1.006969788457E+00
  1.019053425919E+00  1.031282067030E+00  1.043657451834E+00  1.056181341256E+00
  1.068855517351E+00  1.081681783560E+00  1.094661964962E+00  1.107797908542E+00
  1.121091483444E+00  1.134544581246E+00  1.148159116221E+00  1.161937025615E+00
  1.175880269923E+00  1.189990833162E+00  1.204270723160E+00  1.218721971838E+00
  1.233346635500E+00  1.248146795126E+00  1.263124556667E+00  1.278282051347E+00
  1.293621435963E+00  1.309144893195E+00  1.324854631913E+00  1.340752887496E+00
  1.356841922146E+00  1.373124025212E+00  1.389601513514E+00  1.406276731677E+00
  1.423152052457E+00  1.440229877086E+00  1.457512635611E+00  1.475002787239E+00
  1.492702820685E+00  1.510615254534E+00  1.528742637588E+00  1.547087549239E+00
  1.565652599830E+00  1.584440431028E+00  1.603453716200E+00  1.622695160795E+00
  1.642167502724E+00  1.661873512757E+00  1.681815994910E+00  1.701997786849E+00
  1.722421760291E+00  1.743090821415E+00  1.764007911272E+00  1.785176006207E+00
  1.806598118281E+00  1.828277295701E+00  1.850216623249E+00  1.872419222728E+00
  1.894888253401E+00  1.917626912442E+00  1.940638435391E+00  1.963926096616E+00
  1.987493209775E+00  2.011343128292E+00  2.035479245832E+00  2.059904996782E+00
  2.084623856743E+00  2.109639343024E+00  2.134955015140E+00  2.160574475322E+00
  2.186501369026E+00  2.212739385454E+00  2.239292258080E+00  2.266163765177E+00
  2.293357730359E+00  2.320878023123E+00  2.348728559401E+00  2.376913302113E+00
  2.405436261739E+00  2.434301496880E+00  2.463513114842E+00  2.493075272220E+00
  2.522992175487E+00  2.553268081593E+00  2.583907298572E+00  2.614914186155E+00
  2.646293156389E+00  2.678048674265E+00  2.710185258356E+00  2.742707481457E+00
  2.775619971234E+00  2.808927410889E+00  2.842634539820E+00  2.876746154297E+00
  2.911267108149E+00  2.946202313447E+00  2.981556741208E+00  3.017335422103E+00
  3.053543447168E+00  3.090185968534E+00  3.127268200156E+00  3.164795418558E+00
  3.202772963581E+00  3.241206239144E+00  3.280100714014E+00  3.319461922582E+00
  3.359295465653E+00  3.399607011241E+00  3.440402295375E+00  3.481687122920E+00
  3.523467368395E+00  3.565748976816E+00  3.608537964538E+00  3.651840420112E+00
  3.695662505153E+00  3.740010455215E+00  3.784890580678E+00  3.830309267646E+00
  3.876272978858E+00  3.922788254604E+00  3.969861713659E+00  4.017500054223E+00
  4.065710054874E+00  4.114498575532E+00  4.163872558439E+00  4.213839029140E+00
  4.264405097490E+00  4.315577958659E+00  4.367364894163E+00  4.419773272893E+00
  4.472810552168E+00  4.526484278794E+00  4.580802090140E+00  4.635771715221E+00
  4.691400975804E+00  4.747697787514E+00  4.804670160964E+00  4.862326202895E+00
  4.920674117330E+00  4.979722206738E+00  5.039478873219E+00  5.099952619697E+00
  5.161152051134E+00  5.223085875747E+00  5.285762906256E+00  5.349192061131E+00
  5.413382365865E+00  5.478342954255E+00  5.544083069706E+00  5.610612066543E+00
  5.677939411341E+00  5.746074684278E+00  5.815027580489E+00  5.884807911455E+00
  5.955425606392E+00  6.026890713669E+00  6.099213402233E+00  6.172403963060E+00
  6.246472810616E+00  6.321430484344E+00  6.397287650156E+00  6.474055101958E+00
  6.551743763181E+00  6.630364688340E+00  6.709929064600E+00  6.790448213375E+00
  6.871933591935E+00  6.954396795039E+00  7.037849556579E+00  7.122303751258E+00
  7.207771396273E+00  7.294264653028E+00  7.381795828865E+00  7.470377378811E+00
  7.560021907357E+00  7.650742170245E+00  7.742551076288E+00  7.835461689203E+00
  7.929487229474E+00  8.024641076228E+00  8.120936769142E+00  8.218388010372E+00
  8.317008666496E+00  8.416812770494E+00  8.517814523740E+00  8.620028298025E+00
  8.723468637602E+00  8.828150261253E+00  8.934088064388E+00  9.041297121160E+00
  9.149792686614E+00  9.259590198854E+00  9.370705281240E+00  9.483153744615E+00
  9.596951589550E+00  9.712115008625E+00  9.828660388728E+00  9.946604313393E+00
  1.006596356515E+01  1.018675512794E+01  1.030899618947E+01  1.043270414374E+01
  1.055789659347E+01  1.068459135259E+01  1.081280644882E+01  1.094256012621E+01
  1.107387084772E+01  1.120675729790E+01  1.134123838547E+01  1.147733324610E+01
  1.161506124505E+01  1.175444197999E+01  1.189549528375E+01  1.203824122715E+01
  1.218270012188E+01  1.232889252334E+01  1.247683923362E+01  1.262656130443E+01
  1.277808004008E+01  1.293141700056E+01  1.308659400457E+01  1.324363313262E+01
  1.340255673021E+01  1.356338741098E+01  1.372614805991E+01  1.389086183663E+01
  1.405755217867E+01  1.422624280481E+01  1.439695771847E+01  1.456972121109E+01
  1.474455786562E+01  1.492149256001E+01  1.510055047073E+01  1.528175707638E+01
  1.546513816130E+01  1.565071981923E+01  1.583852845706E+01  1.602859079855E+01
  1.622093388813E+01  1.641558509479E+01  1.661257211592E+01  1.681192298131E+01
  1.701366605709E+01  1.721783004978E+01  1.742444401037E+01  1.763353733850E+01
  1.784513978656E+01  1.805928146400E+01  1.827599284157E+01  1.849530475566E+01
  1.871724841273E+01  1.894185539369E+01  1.916915765841E+01  1.939918755031E+01
  1.963197780091E+01  1.986756153453E+01  2.010597227294E+01  2.034724394022E+01
  2.059141086750E+01  2.083850779791E+01  2.108856989148E+01  2.134163273018E+01
  2.159773232294E+01  2.185690511082E+01  2.211918797215E+01  2.238461822781E+01
  2.265323364655E+01  2.292507245031E+01  2.320017331971E+01  2.347857539955E+01
  2.376031830434E+01  2.404544212399E+01  2.433398742948E+01  2.462599527863E+01
  2.492150722198E+01  2.522056530864E+01  2.552321209235E+01  2.582949063745E+01
  2.613944452510E+01  2.645311785940E+01  2.677055527372E+01  2.709180193700E+01
  2.741690356025E+01  2.774590640297E+01  2.807885727980E+01  2.841580356716E+01
  2.875679320997E+01  2.910187472849E+01  2.945109722523E+01  2.980451039193E+01
  3.016216451664E+01  3.052411049083E+01  3.089039981672E+01  3.126108461453E+01
  3.163621762990E+01  3.201585224146E+01  3.240004246836E+01  3.278884297798E+01
  3.318230909371E+01  3.358049680284E+01  3.398346276447E+01  3.439126431764E+01
  3.480395948946E+01  3.522160700333E+01  3.564426628737E+01  3.607199748282E+01
  3.650486145261E+01  3.694291979004E+01  3.738623482752E+01  3.783486964545E+01
  3.828888808120E+01  3.874835473817E+01  3.921333499503E+01  3.968389501497E+01
  4.016010175515E+01  4.064202297621E+01  4.112972725193E+01  4.162328397895E+01
  4.212276338670E+01  4.262823654734E+01  4.313977538591E+01  4.365745269054E+01
  4.418134212282E+01
</grid-data>
</grid>
<valence-charge total-charge="4" is-unscreening-charge="yes"
 rescaled-to-z-pseudo="no">
<radfunc>
<data npts="457">
  6.009323353019E+01  6.008438445269E+01  6.005793578273E+01  6.001382562867E+01
  5.995252932089E+01  5.987198767148E+01  5.976943131759E+01  5.965212325047E+01
  5.952038577917E+01  5.936697670504E+01  5.919433919282E+01  5.900703136204E+01
  5.878112777441E+01  5.854574199873E+01  5.826878880542E+01  5.799297744961E+01
  5.767634254547E+01  5.737716361733E+01  5.704194075422E+01  5.666659485607E+01
  5.624665558817E+01  5.587533189978E+01  5.546966088491E+01  5.502677452774E+01
  5.454362982801E+01  5.401701235622E+01  5.344354381250E+01  5.298057827705E+01
  5.248773708408E+01  5.196344463257E+01  5.140609624343E+01  5.081406710073E+01
  5.018572304080E+01  4.951943340057E+01  4.881358614241E+01  4.806660547520E+01
  4.727697218701E+01  4.644324689326E+01  4.586227085635E+01  4.526074022965E+01
  4.463832321408E+01  4.399472359211E+01  4.332968558679E+01  4.264299901516E+01
  4.193450472795E+01  4.120410032292E+01  4.045174611341E+01  3.967747132722E+01
  3.888138050372E+01  3.806366004923E+01  3.722458490133E+01  3.636452524363E+01
  3.548395320149E+01  3.458344943807E+01  3.366370955829E+01  3.272555021554E+01
  3.176991480347E+01  3.079787860225E+01  2.981065323598E+01  2.880959028603E+01
  2.779618389399E+01  2.677207217843E+01  2.573903728245E+01  2.469900386442E+01
  2.365403584345E+01  2.260633121441E+01  2.155821475638E+01  2.103476094872E+01
  2.051212847266E+01  1.999063893167E+01  1.947061962257E+01  1.895240302245E+01
  1.843632623465E+01  1.792273039361E+01  1.741196002890E+01  1.690436238859E+01
  1.640028672261E+01  1.590008352710E+01  1.540410375074E+01  1.491269796464E+01
  1.442621549769E+01  1.394500353920E+01  1.346940621179E+01  1.299976361694E+01
  1.253641085669E+01  1.207967703509E+01  1.162988424320E+01  1.118734653219E+01
  1.075236887918E+01  1.032524615091E+01  9.906262070623E+00  9.495688194095E+00
  9.093782900651E+00  8.700790405679E+00  8.316939801138E+00  7.942444130861E+00
  7.577499507574E+00  7.222284278652E+00  6.876958247679E+00  6.541661958830E+00
  6.216516051030E+00  5.901620688630E+00  5.597055075123E+00  5.302877056070E+00
  5.019122816972E+00  4.745806681339E+00  4.482921013583E+00  4.230436230681E+00
  3.988300925775E+00  3.756442106024E+00  3.534765546062E+00  3.323156257444E+00
  3.121479073354E+00  2.929579346733E+00  2.747283758855E+00  2.574401234130E+00
  2.410723955778E+00  2.256028475780E+00  2.110076911383E+00  1.972618219291E+00
  1.843389537658E+00  1.722117585005E+00  1.608520104356E+00  1.502307340151E+00
  1.403183534932E+00  1.310848432372E+00  1.224998773003E+00  1.145329768962E+00
  1.071536544239E+00  1.003315527288E+00  9.403657834587E-01  8.823902754972E-01
  8.290970413559E-01  7.802002797590E-01  7.354213353111E-01  6.944895764600E-01
  6.571431612645E-01  6.231296876505E-01  5.922067266421E-01  5.641422388819E-01
  5.387148765974E-01  5.157141749640E-01  4.949406385297E-01  4.762057299525E-01
  4.593317697408E-01  4.441517569190E-01  4.305091215375E-01  4.182574206711E-01
  4.072599899625E-01  3.973895628498E-01  3.885278693479E-01  3.805652256298E-01
  3.734001246795E-01  3.669388369750E-01  3.610950285250E-01  3.557894016588E-01
  3.509493617955E-01  3.465087110754E-01  3.424073672958E-01  3.385911041958E-01
  3.350113068866E-01  3.316247342896E-01  3.283932789620E-01  3.252837138080E-01
  3.222674150161E-01  3.193199251758E-01  3.164199899131E-01  3.135483602987E-01
  3.106876224434E-01  3.078221533719E-01  3.049379910214E-01  3.020227448646E-01
  2.990655056142E-01  2.960567597961E-01  2.929883082546E-01  2.898531882551E-01
  2.866455989106E-01  2.833608296909E-01  2.799951918080E-01  2.765459522942E-01
  2.730112706102E-01  2.693901376388E-01  2.656823169353E-01  2.618882881238E-01
  2.580091923408E-01  2.540467796419E-01  2.500033583019E-01  2.458817459486E-01
  2.416852224814E-01  2.374174847372E-01  2.330826028703E-01  2.286849784223E-01
  2.242293040618E-01  2.197205249784E-01  2.151638019154E-01  2.105644758316E-01
  2.059280341786E-01  2.012600787837E-01  1.965662953244E-01  1.918524243835E-01
  1.871242340679E-01  1.823874941750E-01  1.776479518893E-01  1.729113089871E-01
  1.681832005273E-01  1.634691750046E-01  1.587746759367E-01  1.541050248581E-01
  1.494654056901E-01  1.448608504545E-01  1.402962262970E-01  1.357762237860E-01
  1.313053464495E-01  1.268879015122E-01  1.225279917953E-01  1.182295087373E-01
  1.139961264968E-01  1.098312970963E-01  1.057382465640E-01  1.017199720341E-01
  9.777923976187E-02  9.391858401257E-02  9.014030678340E-02  8.644647831636E-02
  8.283893836263E-02  7.931929815841E-02  7.588894307399E-02  7.254903589821E-02
  6.930052072198E-02  6.614412738565E-02  6.308037645597E-02  6.010958469989E-02
  5.723187102307E-02  5.444716284228E-02  5.175520286121E-02  4.915555622002E-02
  4.664761798894E-02  4.423062097628E-02  4.190364382094E-02  3.966561933863E-02
  3.751534308860E-02  3.545148213865E-02  3.347258397077E-02  3.157708551895E-02
  2.976332228774E-02  2.802953751704E-02  2.637389135428E-02  2.479446999434E-02
  2.328929474695E-02  2.185633099142E-02  2.049349697898E-02  1.919867244352E-02
  1.796970698339E-02  1.680442817842E-02  1.570064940881E-02  1.465617734526E-02
  1.366881908300E-02  1.273638889553E-02  1.185671458807E-02  1.102764343412E-02
  1.024704768271E-02  9.512829628113E-03  8.822926237284E-03  8.175313334440E-03
  7.568009345731E-03  6.999078610317E-03  6.466634267331E-03  5.968840731054E-03
  5.503915769124E-03  5.070132200782E-03  4.665819233978E-03  4.289363461675E-03
  3.939209538800E-03  3.613860562141E-03  3.311878175979E-03  3.031882426477E-03
  2.772551387769E-03  2.532620582409E-03  2.310882218263E-03  2.106184263357E-03
  1.917429378928E-03  1.743573730453E-03  1.583625694766E-03  1.436644480349E-03
  1.301738676651E-03  1.178064746862E-03  1.064825477279E-03  9.612683950760E-04
  8.666841650463E-04  7.804049746359E-04  7.018029154722E-04  6.302883685222E-04
  5.653083990522E-04  5.063451666971E-04  4.529143551775E-04  4.045636255360E-04
  3.608710961878E-04  3.214438525908E-04  2.859164889333E-04  2.539496838902E-04
  2.252288122214E-04  1.994625937465E-04  1.763817810335E-04  1.557378869708E-04
  1.373019532424E-04  1.208633605873E-04  1.062286815975E-04  9.322057667811E-05
  8.167673366401E-05  7.144885145608E-05  6.240166790012E-05  5.441203199154E-05
  4.736802034205E-05  4.116809769645E-05  3.572032113846E-05  3.094158747623E-05
  2.675692315365E-05  2.309881589372E-05  1.990658714824E-05  1.712580430461E-05
  1.470773148829E-05  1.260881769844E-05  1.079022092660E-05  9.217366833775E-06
  7.859540500675E-06  6.689509719365E-06  5.683178261378E-06  4.819267537834E-06
  4.079025059972E-06  3.445958113371E-06  2.905591074901E-06  2.445244827197E-06
  2.053836760015E-06  1.721699890207E-06  1.440419681030E-06  1.202687196007E-06
  1.002167281566E-06  8.333805350234E-07  6.915978794018E-07  5.727466329289E-07
  4.733270282925E-07  3.903382038770E-07  3.212127557705E-07  2.637590046708E-07
  2.161101954714E-07  1.766799088678E-07  1.441230234580E-07  1.173016232613E-07
  9.525529915241E-08  7.717534327090E-08  6.238238293717E-08  5.030704494937E-08
  4.047328236513E-08  3.248403402404E-08  2.600892221796E-08  2.077372616271E-08
  1.655139838343E-08  1.315441792804E-08  1.042829861324E-08  8.246092434003E-09
  6.503747986480E-09  5.116201421250E-09  4.014093214369E-09  3.141018070352E-09
  2.451227702165E-09  1.907717211158E-09  1.480635450373E-09  1.145968226381E-09
  8.844505983433E-10  6.806709807468E-10  5.223353524325E-10  3.996647150378E-10
  3.049031165222E-10  2.319171400656E-10  1.758708276327E-10  1.329626261598E-10
  1.002131710922E-10  7.529460909371E-11  5.639375549831E-11  4.210272347259E-11
  3.133178697346E-11  2.324018002958E-11  1.718131823081E-11  1.265957853762E-11
  9.296311352597E-12  6.803202086016E-12  4.961463516612E-12  3.605638184167E-12
  2.611032986503E-12  1.884005523316E-12  1.354481492346E-12  9.702112877988E-13
  6.923774735686E-13  4.922476687172E-13  3.486334608090E-13  2.459684532649E-13
  1.728600889917E-13  1.210026322561E-13  8.436439548725E-14  5.858239889627E-14
  4.051330699099E-14  2.790163075656E-14  1.913556649542E-14  1.306806045698E-14
  8.886218395374E-15  6.016397989510E-15  4.055526806668E-15  2.721612428781E-15
  1.818236732748E-15  1.209194872988E-15  8.004610059270E-16  5.274218029987E-16
  3.458802008566E-16  2.257451681232E-16  1.466261643877E-16  9.477188995332E-17
  6.095329162658E-17  3.900663781508E-17  2.483576174196E-17  1.573212953041E-17
  9.913840175139E-18  6.214608453909E-18  3.875035916293E-18  2.403256102302E-18
  1.482376966607E-18  9.093333635953E-19  5.547083298533E-19  3.364760972958E-19
  2.029374611534E-19  1.216911009403E-19  7.254603603431E-20  4.299286256668E-20
  0.000000000000E+00  0.000000000000E+00  0.000000000000E+00  0.000000000000E+00
  0.000000000000E+00  0.000000000000E+00  0.000000000000E+00  0.000000000000E+00
  0.000000000000E+00  0.000000000000E+00  0.000000000000E+00  0.000000000000E+00
  0.000000000000E+00  0.000000000000E+00  0.000000000000E+00  0.000000000000E+00
  0.000000000000E+00  0.000000000000E+00  0.000000000000E+00  0.000000000000E+00
  0.000000000000E+00  0.000000000000E+00  0.000000000000E+00  0.000000000000E+00
  0.000000000000E+00
</data>
</radfunc>
</valence-charge>
<semilocal-potentials set="scalar_relativistic">
<slps n="1" l="s" rc="1.35684192215" eref="-3.90325685444">
<radfunc>
<data npts="256">
 -1.676760968730E+01 -1.676696973421E+01 -1.676505684582E+01 -1.676186590533E+01
 -1.675743025103E+01 -1.675159931318E+01 -1.674417024743E+01 -1.673566654617E+01
 -1.672610905601E+01 -1.671496873038E+01 -1.670241820666E+01 -1.668878422556E+01
 -1.667231688971E+01 -1.665512973071E+01 -1.663486901758E+01 -1.661464936747E+01
 -1.659138310099E+01 -1.656934499688E+01 -1.654458694292E+01 -1.651678158426E+01
 -1.648556392020E+01 -1.645786115643E+01 -1.642748589273E+01 -1.639418844017E+01
 -1.635769695169E+01 -1.631771557401E+01 -1.627392244469E+01 -1.623836668639E+01
 -1.620031170760E+01 -1.615958840900E+01 -1.611601678378E+01 -1.606940523107E+01
 -1.601954982337E+01 -1.596623352502E+01 -1.590922535887E+01 -1.584827951849E+01
 -1.578313442351E+01 -1.571351171654E+01 -1.566446351370E+01 -1.561320161153E+01
 -1.555962971464E+01 -1.550364746907E+01 -1.544515029785E+01 -1.538402923175E+01
 -1.532017073564E+01 -1.525345653071E+01 -1.518376341301E+01 -1.511096306886E+01
 -1.503492188761E+01 -1.495550077254E+01 -1.487255495059E+01 -1.478593378179E+01
 -1.469548056923E+01 -1.460103237061E+01 -1.450241981229E+01 -1.439946690685E+01
 -1.429199087490E+01 -1.417980197199E+01 -1.406270332083E+01 -1.394049074859E+01
 -1.381295262844E+01 -1.367986972284E+01 -1.354101502489E+01 -1.339615359125E+01
 -1.324504235710E+01 -1.308742991961E+01 -1.292305627067E+01 -1.283825030397E+01
 -1.275165245371E+01 -1.266322762815E+01 -1.257294011213E+01 -1.248075354412E+01
 -1.238663089007E+01 -1.229053441341E+01 -1.219242564106E+01 -1.209226532510E+01
 -1.199001339998E+01 -1.188562893520E+01 -1.177907008363E+01 -1.167029402598E+01
 -1.155925691212E+01 -1.144591380056E+01 -1.133021859789E+01 -1.121212400069E+01
 -1.109158144318E+01 -1.096854105486E+01 -1.084295163351E+01 -1.071476063996E+01
 -1.058391422243E+01 -1.045035727948E+01 -1.031403357178E+01 -1.017488589440E+01
 -1.003285632186E+01 -9.887886539292E+00 -9.739918273128E+00 -9.588893834584E+00
 -9.434756788403E+00 -9.277452757752E+00 -9.116930373897E+00 -8.953142376243E+00
 -8.786046864543E+00 -8.615608700711E+00 -8.441801052832E+00 -8.264607068896E+00
 -8.084021662793E+00 -7.900053390454E+00 -7.712726390074E+00 -7.522082357456E+00
 -7.328182525860E+00 -7.131109619689E+00 -6.930969752885E+00 -6.727894246198E+00
 -6.522041342316E+00 -6.313597804068E+00 -6.102780388142E+00 -5.889837194579E+00
 -5.675048900210E+00 -5.458729891741E+00 -5.241229320937E+00 -5.022932110022E+00
 -4.804259940109E+00 -4.585672259454E+00 -4.367667352529E+00 -4.150783516564E+00
 -3.935600401379E+00 -3.722740583263E+00 -3.512871466994E+00 -3.306707643852E+00
 -3.105013877759E+00 -2.908608941991E+00 -2.718370571834E+00 -2.535241804271E+00
 -2.360238887845E+00 -2.194460667351E+00 -2.039098729266E+00 -1.895446429902E+00
 -1.764902991998E+00 -1.648966004141E+00 -1.549202076492E+00 -1.467182036307E+00
 -1.404366138678E+00 -1.361930200141E+00 -1.340540043510E+00 -1.340111471805E+00
 -1.359629934587E+00 -1.397127774612E+00 -1.449897194892E+00 -1.514936082456E+00
 -1.589506628578E+00 -1.671603910500E+00 -1.760150001439E+00 -1.854847867749E+00
 -1.955774324238E+00 -2.062878847350E+00 -2.175553204303E+00 -2.292371006168E+00
 -2.411014516329E+00 -2.528346310894E+00 -2.640560199886E+00 -2.743353156655E+00
 -2.832082271402E+00 -2.901893665051E+00 -2.947826384080E+00 -2.964903378087E+00
 -2.948212351191E+00 -2.913068248239E+00 -2.878527840184E+00 -2.844393531125E+00
 -2.810666243940E+00 -2.777338275505E+00 -2.744405504240E+00 -2.711863185658E+00
 -2.679706704745E+00 -2.647931496147E+00 -2.616533046634E+00 -2.585506894959E+00
 -2.554848631496E+00 -2.524553897859E+00 -2.494618386477E+00 -2.465037840150E+00
 -2.435808051576E+00 -2.406924862867E+00 -2.378384165052E+00 -2.350181897575E+00
 -2.322314047781E+00 -2.294776650409E+00 -2.267565787072E+00 -2.240677585742E+00
 -2.214108220230E+00 -2.187853909669E+00 -2.161910918000E+00 -2.136275553449E+00
 -2.110944168024E+00 -2.085913156995E+00 -2.061178958393E+00 -2.036738052504E+00
 -2.012586961372E+00 -1.988722248301E+00 -1.965140517370E+00 -1.941838412944E+00
 -1.918812619200E+00 -1.896059859649E+00 -1.873576896670E+00 -1.851360531046E+00
 -1.829407601506E+00 -1.807714984279E+00 -1.786279592641E+00 -1.765098376475E+00
 -1.744168321841E+00 -1.723486450541E+00 -1.703049819695E+00 -1.682855521325E+00
 -1.662900681933E+00 -1.643182462100E+00 -1.623698056077E+00 -1.604444691384E+00
 -1.585419628419E+00 -1.566620160065E+00 -1.548043611306E+00 -1.529687338844E+00
 -1.511548730727E+00 -1.493625205972E+00 -1.475914214199E+00 -1.458413235270E+00
 -1.441119778927E+00 -1.424031384439E+00 -1.407145620252E+00 -1.390460083640E+00
 -1.373972400363E+00 -1.357680224332E+00 -1.341581237271E+00 -1.325673148387E+00
 -1.309953694046E+00 -1.294420637449E+00 -1.279071768313E+00 -1.263904902557E+00
 -1.248917881991E+00 -1.234108574012E+00 -1.219474871293E+00 -1.205014691517E+00
 -1.190725976964E+00 -1.176606694444E+00 -1.162654834777E+00 -1.148868412636E+00
 -1.135245466231E+00 -1.121784057035E+00 -1.108482269513E+00 -1.095338210842E+00
 -1.082350010654E+00 -1.069515820760E+00 -1.056833814896E+00 -1.044302188459E+00
 -1.031919158253E+00 -1.019682962236E+00 -1.007591859265E+00 -9.956441288534E-01
</data>
</radfunc>
</slps>
<slps n="2" l="p" rc="1.10779790854" eref="0.989496871795E-09">
<radfunc>
<data npts="256">
 -1.164159519066E+01 -1.164120155104E+01 -1.164002462815E+01 -1.163806036908E+01
 -1.163532781316E+01 -1.163173201630E+01 -1.162714463294E+01 -1.162188534541E+01
 -1.161596372649E+01 -1.160904728733E+01 -1.160123714686E+01 -1.159273099293E+01
 -1.158242696852E+01 -1.157163745954E+01 -1.155887266438E+01 -1.154608455292E+01
 -1.153130912596E+01 -1.151725437235E+01 -1.150139668367E+01 -1.148350173711E+01
 -1.146330405774E+01 -1.144528706795E+01 -1.142543220666E+01 -1.140354893269E+01
 -1.137942657734E+01 -1.135283225581E+01 -1.132350861398E+01 -1.129955486681E+01
 -1.127377596105E+01 -1.124603133875E+01 -1.121616990368E+01 -1.118402940839E+01
 -1.114943586602E+01 -1.111220300808E+01 -1.107213181495E+01 -1.102901015190E+01
 -1.098261255130E+01 -1.093270018890E+01 -1.089734874016E+01 -1.086024566236E+01
 -1.082131078199E+01 -1.078046169747E+01 -1.073761397533E+01 -1.069268139604E+01
 -1.064557625505E+01 -1.059620972441E+01 -1.054449228081E+01 -1.049033420512E+01
 -1.043364615829E+01 -1.037433983798E+01 -1.031232871881E+01 -1.024752887826E+01
 -1.017985990810E+01 -1.010924590919E+01 -1.003561656441E+01 -9.958908281485E+00
 -9.879065392744E+00 -9.796041394655E+00 -9.709800203936E+00 -9.620317400908E+00
 -9.527581423534E+00 -9.431594667742E+00 -9.332374441101E+00 -9.229953707878E+00
 -9.124381554154E+00 -9.015723292405E+00 -8.904060116041E+00 -8.847131193479E+00
 -8.789488206882E+00 -8.731145268240E+00 -8.672117193149E+00 -8.612419409838E+00
 -8.552067854113E+00 -8.491078849577E+00 -8.429468972636E+00 -8.367254901886E+00
 -8.304453251731E+00 -8.241080390278E+00 -8.177152241962E+00 -8.112684075668E+00
 -8.047690279652E+00 -7.982184125166E+00 -7.916177521365E+00 -7.849680764880E+00
 -7.782702288447E+00 -7.715248413933E+00 -7.647323116342E+00 -7.578927806568E+00
 -7.510061141953E+00 -7.440718874970E+00 -7.370893751532E+00 -7.300575471467E+00
 -7.229750724404E+00 -7.158403314720E+00 -7.086514389027E+00 -7.014062778883E+00
 -6.941025469902E+00 -6.867378206009E+00 -6.793096234332E+00 -6.718155191967E+00
 -6.642532130768E+00 -6.566206670394E+00 -6.489162263381E+00 -6.411387549116E+00
 -6.332877766692E+00 -6.253636189962E+00 -6.173675542170E+00 -6.093019342621E+00
 -6.011703134363E+00 -5.929775540138E+00 -5.847299094118E+00 -5.764350799401E+00
 -5.681022365911E+00 -5.597420090230E+00 -5.513664347857E+00 -5.429888679142E+00
 -5.346238462603E+00 -5.262869183055E+00 -5.179944316992E+00 -5.097632873802E+00
 -5.016106648972E+00 -4.935537264944E+00 -4.856093097627E+00 -4.777936213167E+00
 -4.701219472128E+00 -4.626083999039E+00 -4.552657266194E+00 -4.481052103337E+00
 -4.411367018337E+00 -4.343688292792E+00 -4.278094385584E+00 -4.214663205401E+00
 -4.153482741482E+00 -4.094665271270E+00 -4.038364742067E+00 -3.984795743640E+00
 -3.934250520262E+00 -3.887107569005E+00 -3.843821719556E+00 -3.804882128988E+00
 -3.770723603492E+00 -3.741581957700E+00 -3.717300452058E+00 -3.697124014763E+00
 -3.679554731198E+00 -3.662365642638E+00 -3.642849996402E+00 -3.618301959987E+00
 -3.588944480651E+00 -3.555904607451E+00 -3.518777666122E+00 -3.477974555306E+00
 -3.434470512954E+00 -3.389475149572E+00 -3.344132205146E+00 -3.299325971141E+00
 -3.255611942992E+00 -3.213244650221E+00 -3.172257186108E+00 -3.132551160663E+00
 -3.093971406655E+00 -3.056355965308E+00 -3.019562806067E+00 -2.983480399680E+00
 -2.948017750326E+00 -2.913068248239E+00 -2.878527840184E+00 -2.844393531125E+00
 -2.810666243940E+00 -2.777338275505E+00 -2.744405504240E+00 -2.711863185658E+00
 -2.679706704745E+00 -2.647931496147E+00 -2.616533046634E+00 -2.585506894959E+00
 -2.554848631496E+00 -2.524553897859E+00 -2.494618386477E+00 -2.465037840150E+00
 -2.435808051576E+00 -2.406924862867E+00 -2.378384165052E+00 -2.350181897575E+00
 -2.322314047781E+00 -2.294776650409E+00 -2.267565787072E+00 -2.240677585742E+00
 -2.214108220230E+00 -2.187853909669E+00 -2.161910918000E+00 -2.136275553449E+00
 -2.110944168024E+00 -2.085913156995E+00 -2.061178958393E+00 -2.036738052504E+00
 -2.012586961372E+00 -1.988722248301E+00 -1.965140517370E+00 -1.941838412944E+00
 -1.918812619200E+00 -1.896059859649E+00 -1.873576896670E+00 -1.851360531046E+00