<?xml version="1.0" encoding="UTF-8" ?>
<psml version="1.1" energy_unit="hartree" length_unit="bohr"
 uuid="63ca49d0-be42-11e7-44bc-6dcfff6d4a9c"
 xmlns="http://esl.cecam.org/PSML/ns/1.1">
<provenance creator="ONCVPSP-3.3.0+psml-3.3.0-73 (scalar-relativistic)"
 date="2017-10-31">
<annotation action="semilocal-pseudopotential-generation"
 action-cont="projectors-generation" />
<input-file name="oncvpsp-input">
<![CDATA[# atsym z nc nv iexc psfile
Rb 37 6 3 4 upf
# n l f
1 0 2.0
2 0 2.0
2 1 6.0
3 0 2.0
3 1 6.0
3 2 10.0
4 0 2.0
4 1 6.0
5 0 1.0
# lmax
2
# l rc ep ncon nbas qcut
0 1.7 0.0 4 9 6.4
1 1.75 0.0 4 9 6.6
2 1.9 0.1 4 9 7.4
# lloc lpopt rc5 dvloc0
4 5 1.7 2.5
# l nproj debl
0 2 1.0
1 2 3.5
2 2 2.5
# icmod fcfact rcfact
3 7.0 1.25
# epsh1 epsh2 depsh
-12.0 12.0 0.02
# rlmax drl
6.0 0.01
 0
]]>
</input-file>
</provenance>
<pseudo-atom-spec atomic-label="Rb" atomic-number="37" z-pseudo="9"
 flavor="Hamann&apos;s oncvpsp" relativity="scalar" spin-dft="no"
 core-corrections="yes">
<annotation pseudo-energy="-24.2665100068" />
<exchange-correlation>
<annotation oncvpsp-xc-code="4" oncvpsp-xc-type="GGA -- Perdew-Burke-Ernzerhof" />
<libxc-info number-of-functionals="2">
<functional name="Perdew, Burke &amp; Ernzerhof (GGA)" type="exchange" id="101" />
<functional name="Perdew, Burke &amp; Ernzerhof (GGA)" type="correlation"
 id="130" />
</libxc-info>
</exchange-correlation>
<valence-configuration total-valence-charge="9">
<shell n="4" l="s" occupation="2" />
<shell n="4" l="p" occupation="6" />
<shell n="5" l="s" occupation="1" />
</valence-configuration>
</pseudo-atom-spec>
<grid npts="458">
<annotation type="sampled from oncvpsp log grid"
 recipe="r(i:1..N) = r1*exp(a*(i-1)) + r=0; resampled"
 recipe-cont="r1: scale; a: step" scale="0.135135135135E-04"
 step="0.119285708653E-01" delta="0.500000000000E-02" rmax="44.4480804401" />
<grid-data>
  0.000000000000E+00  5.015364275536E-03  1.001779654873E-02  1.502829226536E-02
  2.024987958689E-02  2.540108002142E-02  3.074258501631E-02  3.589938802680E-02
  4.093291586519E-02  4.611877975066E-02  5.134550390486E-02  5.648674120200E-02
  6.214277179039E-02  6.755448818428E-02  7.256668482434E-02  7.795076075524E-02
  8.373430751356E-02  8.888039899844E-02  9.434275580343E-02  1.001408147677E-01
  1.062952072679E-01  1.114899531924E-01  1.169385711956E-01  1.226534682428E-01
  1.286476576391E-01  1.349347886622E-01  1.415291776427E-01  1.466856132050E-01
  1.520299169380E-01  1.575689335796E-01  1.633097572469E-01  1.692597405222E-01
  1.754265038697E-01  1.818179453957E-01  1.884422509637E-01  1.953079046791E-01
  2.024236997544E-01  2.097987497720E-01  2.148641307865E-01  2.200518103602E-01
  2.253647412695E-01  2.308059475827E-01  2.363785263812E-01  2.420856495221E-01
  2.479305654442E-01  2.539166010163E-01  2.600471634312E-01  2.663257421451E-01
  2.727559108634E-01  2.793413295753E-01  2.860857466366E-01  2.929930009034E-01
  3.000670239172E-01  3.073118421427E-01  3.147315792594E-01  3.223304585090E-01
  3.301128050992E-01  3.380830486655E-01  3.462457257925E-01  3.546054825961E-01
  3.631670773679E-01  3.719353832838E-01  3.809153911778E-01  3.901122123824E-01
  3.995310816382E-01  4.091773600733E-01  4.190565382549E-01  4.240852167139E-01
  4.291742393145E-01  4.343243301863E-01  4.395362221485E-01  4.448106568143E-01
  4.501483846961E-01  4.555501653124E-01  4.610167672962E-01  4.665489685037E-01
  4.721475561258E-01  4.778133267993E-01  4.835470867209E-01  4.893496517615E-01
  4.952218475827E-01  5.011645097536E-01  5.071784838707E-01  5.132646256771E-01
  5.194238011853E-01  5.256568867995E-01  5.319647694411E-01  5.383483466744E-01
  5.448085268345E-01  5.513462291565E-01  5.579623839064E-01  5.646579325132E-01
  5.714338277034E-01  5.782910336358E-01  5.852305260395E-01  5.922532923519E-01
  5.993603318602E-01  6.065526558425E-01  6.138312877126E-01  6.211972631651E-01
  6.286516303231E-01  6.361954498870E-01  6.438297952856E-01  6.515557528291E-01
  6.593744218630E-01  6.672869149254E-01  6.752943579045E-01  6.833978901993E-01
  6.915986648817E-01  6.998978488603E-01  7.082966230466E-01  7.167961825232E-01
  7.253977367135E-01  7.341025095540E-01  7.429117396687E-01  7.518266805447E-01
  7.608486007112E-01  7.699787839198E-01  7.792185293268E-01  7.885691516787E-01
  7.980319814989E-01  8.076083652769E-01  8.172996656602E-01  8.271072616481E-01
  8.370325487879E-01  8.470769393733E-01  8.572418626458E-01  8.675287649976E-01
  8.779391101775E-01  8.884743794997E-01  8.991360720537E-01  9.099257049183E-01
  9.208448133773E-01  9.318949511379E-01  9.430776905515E-01  9.543946228381E-01
  9.658473583122E-01  9.774375266119E-01  9.891667769313E-01  1.001036778254E+00
  1.013049219594E+00  1.025205810229E+00  1.037508279951E+00  1.049958379311E+00
  1.062557879863E+00  1.075308574421E+00  1.088212277314E+00  1.101270824642E+00
  1.114486074537E+00  1.127859907432E+00  1.141394226321E+00  1.155090957037E+00
  1.168952048521E+00  1.182979473104E+00  1.197175226781E+00  1.211541329502E+00
  1.226079825456E+00  1.240792783362E+00  1.255682296762E+00  1.270750484323E+00
  1.285999490135E+00  1.301431484017E+00  1.317048661825E+00  1.332853245767E+00
  1.348847484716E+00  1.365033654533E+00  1.381414058387E+00  1.397991027088E+00
  1.414766919413E+00  1.431744122446E+00  1.448925051915E+00  1.466312152538E+00
  1.483907898368E+00  1.501714793149E+00  1.519735370667E+00  1.537972195115E+00
  1.556427861456E+00  1.575104995793E+00  1.594006255743E+00  1.613134330812E+00
  1.632491942782E+00  1.652081846095E+00  1.671906828248E+00  1.691969710187E+00
  1.712273346709E+00  1.732820626870E+00  1.753614474392E+00  1.774657848085E+00
  1.795953742262E+00  1.817505187169E+00  1.839315249415E+00  1.861387032408E+00
  1.883723676797E+00  1.906328360919E+00  1.929204301250E+00  1.952354752865E+00
  1.975783009899E+00  1.999492406018E+00  2.023486314890E+00  2.047768150669E+00
  2.072341368477E+00  2.097209464898E+00  2.122375978477E+00  2.147844490219E+00
  2.173618624102E+00  2.199702047591E+00  2.226098472162E+00  2.252811653828E+00
  2.279845393674E+00  2.307203538398E+00  2.334889980859E+00  2.362908660629E+00
  2.391263564557E+00  2.419958727331E+00  2.448998232059E+00  2.478386210844E+00
  2.508126845374E+00  2.538224367518E+00  2.568683059929E+00  2.599507256648E+00
  2.630701343728E+00  2.662269759852E+00  2.694216996971E+00  2.726547600934E+00
  2.759266172145E+00  2.792377366211E+00  2.825885894606E+00  2.859796525341E+00
  2.894114083645E+00  2.928843452649E+00  2.963989574081E+00  2.999557448970E+00
  3.035552138357E+00  3.071978764018E+00  3.108842509186E+00  3.146148619296E+00
  3.183902402727E+00  3.222109231560E+00  3.260774542339E+00  3.299903836847E+00
  3.339502682889E+00  3.379576715084E+00  3.420131635665E+00  3.461173215293E+00
  3.502707293876E+00  3.544739781403E+00  3.587276658780E+00  3.630323978685E+00
  3.673887866429E+00  3.717974520826E+00  3.762590215076E+00  3.807741297657E+00
  3.853434193229E+00  3.899675403548E+00  3.946471508390E+00  3.993829166491E+00
  4.041755116489E+00  4.090256177887E+00  4.139339252022E+00  4.189011323046E+00
  4.239279458922E+00  4.290150812429E+00  4.341632622179E+00  4.393732213645E+00
  4.446457000208E+00  4.499814484211E+00  4.553812258022E+00  4.608458005118E+00
  4.663759501179E+00  4.719724615193E+00  4.776361310576E+00  4.833677646303E+00
  4.891681778058E+00  4.950381959395E+00  5.009786542908E+00  5.069903981423E+00
  5.130742829200E+00  5.192311743150E+00  5.254619484068E+00  5.317674917877E+00
  5.381487016891E+00  5.446064861094E+00  5.511417639427E+00  5.577554651100E+00
  5.644485306913E+00  5.712219130596E+00  5.780765760163E+00  5.850134949285E+00
  5.920336568677E+00  5.991380607501E+00  6.063277174791E+00  6.136036500888E+00
  6.209668938899E+00  6.284184966166E+00  6.359595185760E+00  6.435910327989E+00
  6.513141251925E+00  6.591298946948E+00  6.670394534311E+00  6.750439268723E+00
  6.831444539948E+00  6.913421874427E+00  6.996382936920E+00  7.080339532163E+00
  7.165303606549E+00  7.251287249828E+00  7.338302696826E+00  7.426362329188E+00
  7.515478677138E+00  7.605664421264E+00  7.696932394319E+00  7.789295583051E+00
  7.882767130047E+00  7.977360335608E+00  8.073088659635E+00  8.169965723551E+00
  8.268005312233E+00  8.367221375980E+00  8.467628032492E+00  8.569239568882E+00
  8.672070443708E+00  8.776135289033E+00  8.881448912501E+00  8.988026299451E+00
  9.095882615045E+00  9.205033206425E+00  9.315493604902E+00  9.427279528161E+00
  9.540406882499E+00  9.654891765089E+00  9.770750466270E+00  9.887999471865E+00
  1.000665546553E+01  1.012673533111E+01  1.024825615509E+01  1.037123522895E+01
  1.049569005170E+01  1.062163833232E+01  1.074909799230E+01  1.087808716821E+01
  1.100862421423E+01  1.114072770480E+01  1.127441643726E+01  1.140970943451E+01
  1.154662594772E+01  1.168518545909E+01  1.182540768460E+01  1.196731257682E+01
  1.211092032774E+01  1.225625137167E+01  1.240332638813E+01  1.255216630479E+01
  1.270279230045E+01  1.285522580805E+01  1.300948851775E+01  1.316560237996E+01
  1.332358960852E+01  1.348347268382E+01  1.364527435603E+01  1.380901764830E+01
  1.397472586008E+01  1.414242257040E+01  1.431213164125E+01  1.448387722094E+01
  1.465768374759E+01  1.483357595256E+01  1.501157886399E+01  1.519171781036E+01
  1.537401842409E+01  1.555850664518E+01  1.574520872492E+01  1.593415122962E+01
  1.612536104437E+01  1.631886537691E+01  1.651469176143E+01  1.671286806257E+01
  1.691342247932E+01  1.711638354907E+01  1.732178015166E+01  1.752964151348E+01
  1.773999721164E+01  1.795287717818E+01  1.816831170432E+01  1.838633144477E+01
  1.860696742211E+01  1.883025103117E+01  1.905621404354E+01  1.928488861207E+01
  1.951630727541E+01  1.975050296272E+01  1.998750899827E+01  2.022735910625E+01
  2.047008741552E+01  2.071572846451E+01  2.096431720608E+01  2.121588901256E+01
  2.147047968071E+01  2.172812543688E+01  2.198886294212E+01  2.225272929742E+01
  2.251976204899E+01  2.278999919358E+01  2.306347918390E+01  2.334024093411E+01
  2.362032382532E+01  2.390376771122E+01  2.419061292376E+01  2.448090027884E+01
  2.477467108219E+01  2.507196713518E+01  2.537283074080E+01  2.567730470969E+01
  2.598543236620E+01  2.629725755460E+01  2.661282464525E+01  2.693217854100E+01
  2.725536468349E+01  2.758242905969E+01  2.791341820841E+01  2.824837922691E+01
  2.858735977763E+01  2.893040809496E+01  2.927757299210E+01  2.962890386801E+01
  2.998445071442E+01  3.034426412300E+01  3.070839529247E+01  3.107689603598E+01
  3.144981878841E+01  3.182721661387E+01  3.220914321324E+01  3.259565293180E+01
  3.298680076698E+01  3.338264237619E+01  3.378323408470E+01  3.418863289372E+01
  3.459889648844E+01  3.501408324630E+01  3.543425224526E+01  3.585946327220E+01
  3.628977683147E+01  3.672525415344E+01  3.716595720329E+01  3.761194868973E+01
  3.806329207400E+01  3.852005157889E+01  3.898229219784E+01  3.945007970421E+01
  3.992348066066E+01  4.040256242859E+01  4.088739317773E+01  4.137804189586E+01
  4.187457839862E+01  4.237707333940E+01  4.288559821947E+01  4.340022539811E+01
  4.392102810288E+01  4.444808044012E+01
</grid-data>
</grid>
<valence-charge total-charge="9" is-unscreening-charge="yes"
 rescaled-to-z-pseudo="no">
<radfunc>
<data npts="458">
  3.801295904514E-02  3.812683268959E-02  3.846734672884E-02  3.903580000180E-02
  3.987072165970E-02  4.093744235207E-02  4.229922765657E-02  4.386170652955E-02
  4.562252282270E-02  4.768123132626E-02  5.000861592541E-02  5.254658152077E-02
  5.562534347672E-02  5.885421855454E-02  6.209348517326E-02  6.584164784326E-02
  7.018036803079E-02  7.431536877523E-02  7.898989661321E-02  8.427634710855E-02
  9.025730247984E-02  9.560504330152E-02  1.015117731184E-01  1.080380916001E-01
  1.152515375252E-01  1.232274345220E-01  1.320498432034E-01  1.392782388461E-01
  1.470789773084E-01  1.554994582248E-01  1.645912187394E-01  1.744103051550E-01
  1.850176754572E-01  1.964796341433E-01  2.088683005011E-01  2.222621110685E-01
  2.367463564376E-01  2.524137518073E-01  2.635653877637E-01  2.753194254488E-01
  2.877096219242E-01  3.007716183058E-01  3.145430291028E-01  3.290635324093E-01
  3.443749602784E-01  3.605213884744E-01  3.775492246470E-01  3.955072937936E-01
  4.144469196845E-01  4.344220007026E-01  4.554890783064E-01  4.777073960481E-01
  5.011389467793E-01  5.258485053338E-01  5.519036436117E-01  5.793747245759E-01
  6.083348712272E-01  6.388599061329E-01  6.710282565557E-01  7.049208196475E-01
  7.406207815592E-01  7.782133836424E-01  8.177856282138E-01  8.594259155931E-01
  9.032236033371E-01  9.492684777611E-01  9.976501269951E-01  1.022745005344E+00
  1.048457203962E+00  1.074797517356E+00  1.101776566821E+00  1.129404765936E+00
  1.157692283610E+00  1.186649004558E+00  1.216284487096E+00  1.246607918131E+00
  1.277628065228E+00  1.309353225642E+00  1.341791172181E+00  1.374949095806E+00
  1.408833544831E+00  1.443450360631E+00  1.478804609744E+00  1.514900512275E+00
  1.551741366508E+00  1.589329469653E+00  1.627666034657E+00  1.666751103044E+00
  1.706583453729E+00  1.747160507820E+00  1.788478229406E+00  1.830531022387E+00
  1.873311623411E+00  1.916810991043E+00  1.961018191306E+00  2.005920279809E+00
  2.051502180708E+00  2.097746562809E+00  2.144633713196E+00  2.192141408816E+00
  2.240244786548E+00  2.288916212354E+00  2.338125150200E+00  2.387838031531E+00
  2.438018126179E+00  2.488625415691E+00  2.539616470178E+00  2.590944329874E+00
  2.642558392757E+00  2.694404309635E+00  2.746423888277E+00  2.798555008247E+00
  2.850731548202E+00  2.902883327542E+00  2.954936064370E+00  3.006811351792E+00
  3.058426654668E+00  3.109695328926E+00  3.160526665614E+00  3.210825961791E+00
  3.260494620357E+00  3.309430280805E+00  3.357526982758E+00  3.404675363996E+00
  3.450762894431E+00  3.495674147234E+00  3.539291108012E+00  3.581493522524E+00
  3.622159283045E+00  3.661164852992E+00  3.698385728932E+00  3.733696938543E+00
  3.766973572524E+00  3.798091347886E+00  3.826927199431E+00  3.853359895705E+00
  3.877270675115E+00  3.898543897431E+00  3.917067705484E+00  3.932734691486E+00
  3.945442562201E+00  3.955094797085E+00  3.961601293509E+00  3.964878993405E+00
  3.964852485972E+00  3.961454581593E+00  3.954626852750E+00  3.944320138504E+00
  3.930495009977E+00  3.913122195261E+00  3.892182963144E+00  3.867669466024E+00
  3.839585043272E+00  3.807944487012E+00  3.772774272837E+00  3.734112758141E+00
  3.692010350656E+00  3.646529649163E+00  3.597745557343E+00  3.545745370224E+00
  3.490628830654E+00  3.432508150819E+00  3.371507991024E+00  3.307765384902E+00
  3.241429597103E+00  3.172661896523E+00  3.101635225510E+00  3.028533743498E+00
  2.953552222496E+00  2.876895272018E+00  2.798776372734E+00  2.719416701462E+00
  2.639043735373E+00  2.557889630356E+00  2.476189377416E+00  2.394178751438E+00
  2.312092078334E+00  2.230159858908E+00  2.148606300133E+00  2.067646816082E+00
  1.987485570729E+00  1.908313142408E+00  1.830304393998E+00  1.753616633380E+00
  1.678388144744E+00  1.604737356050E+00  1.532763277691E+00  1.462547341400E+00
  1.394156667720E+00  1.327648245995E+00  1.263070129423E+00  1.200461029125E+00
  1.139851045097E+00  1.081262014876E+00  1.024707938769E+00  9.701954107151E-01
  9.177240572051E-01  8.672869813315E-01  8.188712091128E-01  7.724581354538E-01
  7.280239673069E-01  6.855401618001E-01  6.449738573016E-01  6.062882956055E-01
  5.694432335464E-01  5.343953427118E-01  5.010985958916E-01  4.695046392295E-01
  4.395631491484E-01  4.112221732869E-01  3.844284548292E-01  3.591277397429E-01
  3.352650665659E-01  3.127850384983E-01  2.916320776589E-01  2.717506614678E-01
  2.530855412033E-01  2.355819428714E-01  2.191857506012E-01  2.038436728569E-01
  1.895033918297E-01  1.761136964357E-01  1.636245994140E-01  1.519874390763E-01
  1.411549663141E-01  1.310814175222E-01  1.217225741392E-01  1.130358095473E-01
  1.049801241024E-01  9.751616909335E-02  9.060626044198E-02  8.421438296583E-02
  7.830618602460E-02  7.284897136182E-02  6.781167393645E-02  6.316483651407E-02
  5.888057875512E-02  5.493256149884E-02  5.129594689775E-02  4.794735500906E-02
  4.486481739851E-02  4.202772826031E-02  3.941679350589E-02  3.701397822712E-02
  3.480245289881E-02  3.276653865352E-02  3.089165194208E-02  2.916424888723E-02
  2.757176964717E-02  2.610258312850E-02  2.474593242107E-02  2.349188136276E-02
  2.233126267028E-02  2.125562807897E-02  2.025720090873E-02  1.932883140294E-02
  1.846395507214E-02  1.765655412188E-02  1.690112187416E-02  1.619262993243E-02
  1.552649772001E-02  1.489856396101E-02  1.430505967943E-02  1.374258235623E-02
  1.320807098514E-02  1.269878188111E-02  1.221226519686E-02  1.174634218034E-02
  1.129908325188E-02  1.086878699757E-02  1.045396017060E-02  1.005329877318E-02
  9.665670264917E-03  9.290096915102E-03  8.925740289868E-03  8.571886842344E-03
  8.227934556310E-03  7.893380581144E-03  7.567809788145E-03  7.250884175242E-03
  6.942333048090E-03  6.641943910298E-03  6.349554003173E-03  6.065042445371E-03
  5.788322934107E-03  5.519336981284E-03  5.258047668769E-03  5.004433916329E-03
  4.758485262417E-03  4.520197161820E-03  4.289566804789E-03  4.066589460085E-03
  3.851255339814E-03  3.643546977719E-03  3.443437105558E-03  3.250887005135E-03
  3.065845306964E-03  2.888247201080E-03  2.718014021329E-03  2.555053161741E-03
  2.399258284416E-03  2.250509765348E-03  2.108675358633E-03  1.973611017063E-03
  1.845161843357E-03  1.723163135872E-03  1.607441498256E-03  1.497815985981E-03
  1.394099266218E-03  1.296098770839E-03  1.203617825603E-03  1.116456741566E-03
  1.034413857519E-03  9.572865247627E-04  8.848720277893E-04  8.169684364044E-04
  7.533753865803E-04  6.938947888257E-04  6.383314641388E-04  5.864937086885E-04
  5.381937892538E-04  4.932483721691E-04  4.514788890791E-04  4.127118432284E-04
  3.767790602966E-04  3.435178879736E-04  3.127713485417E-04  2.843882487239E-04
  2.582232509728E-04  2.341369102250E-04  2.119956799454E-04  1.916718910463E-04
  1.730437069981E-04  1.559950581600E-04  1.404155580684E-04  1.262004041247E-04
  1.132502648485E-04  1.014711555925E-04  9.077430437978E-05  8.107600930763E-05
  7.229748877717E-05  6.436472565593E-05  5.720830635229E-05  5.076325568436E-05
  4.496886835084E-05  3.976853775872E-05  3.510958292542E-05  3.094307414881E-05
  2.722365812255E-05  2.390938316237E-05  2.096152519905E-05  1.834441518193E-05
  1.602526852139E-05  1.397401717851E-05  1.216314498357E-05  1.056752673221E-05
  9.164271568911E-06  7.932571122789E-06  6.853552810513E-06  5.910138667504E-06
  5.086910011711E-06  4.369978185943E-06  3.746861565786E-06  3.206368961962E-06
  2.738489489439E-06  2.334288921661E-06  1.985812497746E-06  1.685994103914E-06
  1.428571708374E-06  1.208008891548E-06  1.019422281219E-06  8.585146748652E-07
  7.215136090795E-07  6.051151184406E-07  5.064324132025E-07  4.229491964659E-07
  3.524773367008E-07  2.931186102543E-07  2.432302303843E-07  2.013938840278E-07
  1.663880045160E-07  1.371630174264E-07  1.128193073150E-07  9.258766487727E-08
  7.581198680386E-08  6.193401394689E-08  5.047990712949E-08  4.104847378609E-08
  3.330087241728E-08  2.695163541142E-08  2.176086398686E-08  1.752746173112E-08
  1.408328536789E-08  1.128810290454E-08  9.025260154778E-09  7.197966766315E-09
  5.726122297079E-09  4.543611576124E-09  3.596006568052E-09  2.838619248844E-09
  2.234856626041E-09  1.754835025828E-09  1.374216160236E-09  1.073232316841E-09
  8.358723202654E-10  6.492037394747E-10  5.028101968313E-10  3.883256131469E-10
  2.990498350556E-10  2.296323728365E-10  1.758129622898E-10  1.342093852069E-10
  1.021444689113E-10  7.750546351066E-11  5.863009081192E-11  4.421449396945E-11
  3.323911232108E-11  2.490917990796E-11  1.860711527408E-11  1.385454887669E-11
  1.028213568035E-11  7.605635565544E-12  5.607022947819E-12  4.119618082145E-12
  3.016423370034E-12  2.201005019886E-12  1.600389143936E-12  1.159546516362E-12
  8.371257689027E-13  6.021641511997E-13  4.315609885767E-13  3.081440263183E-13
  2.191949586552E-13  1.553292678037E-13  1.096484228101E-13  7.710064697966E-14
  5.400079022220E-14  3.767110221976E-14  2.617351539424E-14  1.811091690377E-14
  1.248022276392E-14  8.564191191655E-15  5.852087579478E-15  3.981748096812E-15
  2.697447663064E-15  1.819391064667E-15  1.221715531867E-15  8.166991068855E-16
  5.434738721633E-16  3.599948039210E-16  2.373508819761E-16  1.557536743256E-16
  1.017218239430E-16  6.611400991055E-17  0.000000000000E+00  0.000000000000E+00
  0.000000000000E+00  0.000000000000E+00
</data>
</radfunc>
</valence-charge>
<pseudocore-charge matching-radius="0.989166776931"
 number-of-continuous-derivatives="4">
<annotation model-charge-form="Teter function with specified parameters" />
<radfunc>
<data npts="291">
  2.832269769036E+01  2.832122543031E+01  2.831682425256E+01  2.830948125034E+01
  2.829870589716E+01  2.828495582377E+01  2.826742968722E+01  2.824735819288E+01
  2.822478668029E+01  2.819846034669E+01  2.816878039297E+01  2.813651349248E+01
  2.809750759116E+01  2.805675882514E+01  2.801604048375E+01  2.796912457411E+01
  2.791507998201E+01  2.786383203540E+01  2.780619694484E+01  2.774139370562E+01
  2.766854985781E+01  2.760383498658E+01  2.753280393189E+01  2.745485823384E+01
  2.736934650662E+01  2.727556056237E+01  2.717273143038E+01  2.708917596125E+01
  2.699968910765E+01  2.690387113615E+01  2.680129865179E+01  2.669152371554E+01
  2.657407301912E+01  2.644844713755E+01  2.631411988337E+01  2.617053779030E+01
  2.601711975818E+01  2.585325689610E+01  2.573789906627E+01  2.561742132381E+01
  2.549162295082E+01  2.536029802637E+01  2.522323558176E+01  2.508021979691E+01
  2.493103024220E+01  2.477544217024E+01  2.461322686257E+01  2.444415203651E+01
  2.426798231745E+01  2.408447978266E+01  2.389340458243E+01  2.369451564504E+01
  2.348757147189E+01  2.327233102987E+01  2.304855474752E+01  2.281600562223E+01
  2.257445044544E+01  2.232366115276E+01  2.206341630586E+01  2.179350271278E+01
  2.151371719255E+01  2.122386848997E+01  2.092377934504E+01  2.061328872108E+01
  2.029225419399E+01  1.996055450382E+01  1.961809226783E+01  1.944280199556E+01
  1.926479685241E+01  1.908407268506E+01  1.890062739820E+01  1.871446105681E+01
  1.852557599047E+01  1.833397689952E+01  1.813967096292E+01  1.794266794767E+01
  1.774298031961E+01  1.754062335535E+01  1.733561525523E+01  1.712797725687E+01
  1.691773374930E+01  1.670491238708E+01  1.648954420440E+01  1.627166372860E+01
  1.605130909283E+01  1.582852214744E+01  1.560334856970E+01  1.537583797138E+01
  1.514604400370E+01  1.491402445916E+01  1.467984136967E+01  1.444356110049E+01
  1.420525443929E+01  1.396499667971E+01  1.372286769885E+01  1.347895202783E+01
  1.323333891486E+01  1.298612237998E+01  1.273740126067E+01  1.248727924765E+01
  1.223586490987E+01  1.198327170798E+01  1.172961799537E+01  1.147502700582E+01
  1.121962682706E+01  1.096355035907E+01  1.070693525651E+01  1.044992385408E+01
  1.019266307416E+01  9.935304315723E+00  9.678003323664E+00  9.420920037755E+00
  9.164218420393E+00  8.908066262398E+00  8.652634966162E+00  8.398099305503E+00
  8.144637161669E+00  7.892429235003E+00  7.641658731891E+00  7.392511026704E+00
  7.145173298588E+00  6.899834143067E+00  6.656683158580E+00  6.415910508226E+00
  6.177706457169E+00  5.942260886322E+00  5.709762783157E+00  5.480399710648E+00
  5.254357255630E+00  5.031818458041E+00  4.812963222792E+00  4.597967716221E+00
  4.387003749391E+00  4.180238150711E+00  3.977832130649E+00  3.779940641574E+00
  3.586711736009E+00  3.398285926875E+00  3.214795553510E+00  3.036364157547E+00
  2.863105872904E+00  2.695124834407E+00  2.532514609694E+00  2.375357659262E+00
  2.223724829594E+00  2.077674884435E+00  1.937254079292E+00  1.802495784273E+00
  1.673420160280E+00  1.550033893504E+00  1.432329992978E+00  1.320287655699E+00
  1.213872203546E+00  1.113035095824E+00  1.017714020837E+00  9.278330693308E-01
  8.433029920841E-01  7.640215432181E-01  6.898739100678E-01  6.207332296258E-01
  5.564611906978E-01  4.969087199645E-01  4.419167491635E-01  3.913170595800E-01
  3.449331989857E-01  3.025814651074E-01  2.640719486523E-01  2.292096278842E-01
  1.977955057540E-01  1.696277796611E-01  1.445030330726E-01  1.222174374892E-01
  1.025679526294E-01  8.535351223812E-02  7.037618262649E-02  5.744228094214E-02
  4.636344026107E-02  3.695760890948E-02  2.904997196670E-02  2.247378368159E-02
  1.707110055296E-02  1.269340607723E-02  9.202119642428E-03  6.468983731355E-03
  4.376325464121E-03  2.817190532444E-03  1.695349717309E-03  9.251803958496E-04
  4.314276836301E-04  1.488520717260E-04  2.177254729763E-05  3.516172818553E-06
  5.578688346183E-05  1.479677867203E-04  2.563724591736E-04  3.634615844545E-04
  4.570417241806E-04  5.294630306796E-04  5.768322800062E-04  5.982567236295E-04
  5.951329404582E-04  5.704931472876E-04  5.284193416451E-04  4.735332688760E-04
  4.105676023859E-04  3.440209920704E-04  2.778968704704E-04  2.155232141915E-04
  1.594479459502E-04  1.114024328595E-04  7.232368281308E-05  4.242444236569E-05
  2.129951632191E-05  8.056297745646E-06  1.457726698563E-06  6.666715012194E-08
  2.381955176545E-06  6.958050733219E-06  1.250221812458E-05  1.794534538732E-05
  2.248475601538E-05  2.559952922702E-05  2.704079350619E-05  2.680107289178E-05
  2.506795020332E-05  2.216800101212E-05  1.850711869286E-05  1.451300661551E-05
  1.058481110701E-05  7.053697796429E-06  4.156753964368E-06  2.025070188338E-06
  6.853631753290E-07  7.318930878379E-08  5.478621291582E-08  4.539561866537E-07
  1.080217223305E-06  1.754693464672E-06  2.330848284498E-06  2.708087765428E-06
  2.837355563734E-06  2.718959658858E-06  2.393874609739E-06  1.930525047901E-06
  1.409487178412E-06  9.086020448294E-07  4.906876347676E-07  1.954291729619E-07
  3.622405438469E-08  0.000000000000E+00  0.000000000000E+00  0.000000000000E+00
  0.000000000000E+00  0.000000000000E+00  0.000000000000E+00  0.000000000000E+00
  0.000000000000E+00  0.000000000000E+00  0.000000000000E+00  0.000000000000E+00
  0.000000000000E+00  0.000000000000E+00  0.000000000000E+00  0.000000000000E+00
  0.000000000000E+00  0.000000000000E+00  0.000000000000E+00  0.000000000000E+00
  0.000000000000E+00  0.000000000000E+00  0.000000000000E+00  0.000000000000E+00
  0.000000000000E+00  0.000000000000E+00  0.000000000000E+00  0.000000000000E+00
  0.000000000000E+00  0.000000000000E+00  0.000000000000E+00  0.000000000000E+00
  0.000000000000E+00  0.000000000000E+00  0.000000000000E+00  0.000000000000E+00
  0.000000000000E+00  0.000000000000E+00  0.000000000000E+00  0.000000000000E+00
  0.000000000000E+00  0.000000000000E+00  0.000000000000E+00
</data>
</radfunc>
</pseudocore-charge>
<semilocal-potentials set="scalar_relativistic">
<slps n="4" l="s" rc="1.71227334671" eref="-1.17206897144">
<radfunc>
<data npts="291">
  3.750745397034E+01  3.748777587959E+01  3.742903647174E+01  3.733132200308E+01
  3.718857970299E+01  3.700753974398E+01  3.677856606886E+01  3.651876293158E+01
  3.622964750182E+01  3.589644530903E+01  3.552587598076E+01  3.512898576435E+01
  3.465732170871E+01  3.417382404191E+01  3.369985746267E+01  3.316478249257E+01
  3.256257744901E+01  3.200507405801E+01  3.139326824615E+01  3.072384012743E+01
  2.999371490117E+01  2.936407476281E+01  2.869267565917E+01  2.797859807840E+01
  2.722121844951E+01  2.642025748484E+01  2.557582742667E+01  2.491429046531E+01
  2.422900572143E+01  2.352053667291E+01  2.278961157237E+01  2.203712791883E+01
  2.126415478296E+01  2.047193273950E+01  1.966187120205E+01  1.883554300924E+01
  1.799467617520E+01  1.714114279110E+01  1.656606747043E+01  1.598687222573E+01
  1.540419920529E+01  1.481870797345E+01  1.423107269841E+01  1.364197918996E+01
  1.305212181305E+01  1.246220030486E+01  1.187291652490E+01  1.128497116879E+01
  1.069906047723E+01  1.011587297194E+01  9.536086250136E+00  8.960363868761E+00
  8.389352348361E+00  7.823678325382E+00  7.263945879817E+00  6.710734063176E+00
  6.164594649531E+00  5.626050130056E+00  5.095591968981E+00  4.573679136422E+00
  4.060736931064E+00  3.557156103284E+00  3.063292286974E+00  2.579465746188E+00
  2.105961440657E+00  1.643029412320E+00  1.190885493190E+00  9.689174142153E-01
  7.497123331055E-01  5.332881169597E-01  3.196607441278E-01  1.088443631657E-01
 -9.914864352649E-02 -3.043075914459E-01 -5.066234212119E-01 -7.060886213627E-01
 -9.026971468505E-01 -1.096444333367E+00 -1.287326807630E+00 -1.475342393817E+00
 -1.660490016314E+00 -1.842769598993E+00 -2.022181961247E+00 -2.198728711032E+00
 -2.372412135214E+00 -2.543235087516E+00 -2.711200874429E+00 -2.876313139459E+00
 -3.038575746140E+00 -3.197992660257E+00 -3.354567831807E+00 -3.508305077225E+00
 -3.659207962471E+00 -3.807279687640E+00 -3.952522973767E+00 -4.094939952576E+00
 -4.234532059972E+00 -4.371299934128E+00 -4.505243319020E+00 -4.636360974486E+00
 -4.764650593480E+00 -4.890108728132E+00 -5.012730724941E+00 -5.132510670860E+00
 -5.249441351019E+00 -5.363514219341E+00 -5.474719383201E+00 -5.583045603235E+00
 -5.688480309420E+00 -5.791009634480E+00 -5.890618465630E+00 -5.987290515567E+00
 -6.081008413525E+00 -6.171753817053E+00 -6.259507545033E+00 -6.344249732251E+00
 -6.425960005566E+00 -6.504617681522E+00 -6.580201984869E+00 -6.652692287162E+00
 -6.722068364189E+00 -6.788310670581E+00 -6.851400629467E+00 -6.911320934547E+00
 -6.968055861423E+00 -7.021591584476E+00 -7.071916494968E+00 -7.119021515492E+00
 -7.162900405266E+00 -7.203550050230E+00 -7.240970731304E+00 -7.275166363720E+00
 -7.306144699871E+00 -7.333917487835E+00 -7.358500577454E+00 -7.379913965901E+00
 -7.398181774709E+00 -7.413332150657E+00 -7.425397083511E+00 -7.434412134565E+00
 -7.440416071141E+00 -7.443450403894E+00 -7.443558825756E+00 -7.440786553873E+00
 -7.435179578721E+00 -7.426783828081E+00 -7.415644257275E+00 -7.401803881400E+00
 -7.385302769958E+00 -7.366177029234E+00 -7.344457803087E+00 -7.320170328088E+00