<?xml version="1.0" encoding="UTF-8" ?>
<psml version="1.1" energy_unit="hartree" length_unit="bohr"
 uuid="6c035580-be6d-11e7-42f0-1b066fbfd81d"
 xmlns="http://esl.cecam.org/PSML/ns/1.1">
<provenance creator="ONCVPSP-3.3.0+psml-3.3.0-73 (scalar-relativistic)"
 date="2017-10-31">
<annotation action="semilocal-pseudopotential-generation"
 action-cont="projectors-generation" />
<input-file name="oncvpsp-input">
<![CDATA[# atsym z nc nv iexc psfile
Pb 82 10 5 4 upf
# n l f
1 0 2.0
2 0 2.0
2 1 6.0
3 0 2.0
3 1 6.0
3 2 10.0
4 0 2.0
4 1 6.0
4 2 10.0
4 3 14.0
5 0 2.0
5 1 6.0
5 2 10.0
6 0 2.0
6 1 2.0
# lmax
2
# l rc ep ncon nbas qcut
0 1.4 0.0 4 8 9.0
1 1.5 0.0 4 8 8.4
2 1.4 0.0 4 8 9.0
# lloc lpopt rc5 dvloc0
4 5 1.3 0.0
# l nproj debl
0 2 1.8
1 2 2.5
2 2 1.0
# icmod fcfact rcfact
3 6.0 1.34
# epsh1 epsh2 depsh
-15.0 12.0 0.02
# rlmax drl
6.0 0.01
 0
]]>
</input-file>
</provenance>
<pseudo-atom-spec atomic-label="Pb" atomic-number="82" z-pseudo="22"
 flavor="Hamann&apos;s oncvpsp" relativity="scalar" spin-dft="no"
 core-corrections="yes">
<annotation pseudo-energy="-195.399037872" />
<exchange-correlation>
<annotation oncvpsp-xc-code="4" oncvpsp-xc-type="GGA -- Perdew-Burke-Ernzerhof" />
<libxc-info number-of-functionals="2">
<functional name="Perdew, Burke &amp; Ernzerhof (GGA)" type="exchange" id="101" />
<functional name="Perdew, Burke &amp; Ernzerhof (GGA)" type="correlation"
 id="130" />
</libxc-info>
</exchange-correlation>
<valence-configuration total-valence-charge="22">
<shell n="5" l="s" occupation="2" />
<shell n="5" l="p" occupation="6" />
<shell n="5" l="d" occupation="10" />
<shell n="6" l="s" occupation="2" />
<shell n="6" l="p" occupation="2" />
</valence-configuration>
</pseudo-atom-spec>
<grid npts="457">
<annotation type="sampled from oncvpsp log grid"
 recipe="r(i:1..N) = r1*exp(a*(i-1)) + r=0; resampled"
 recipe-cont="r1: scale; a: step" scale="0.609756097561E-05"
 step="0.119285708653E-01" delta="0.500000000000E-02" rmax="44.0711828530" />
<grid-data>
  0.000000000000E+00  5.032510521928E-03  1.005204483031E-02  1.507967014897E-02
  2.031910874069E-02  2.548791981066E-02  3.084768604356E-02  3.602211884327E-02
  4.107285502462E-02  4.627644805099E-02  5.152104103689E-02  5.667985490806E-02
  6.235522201693E-02  6.778543968363E-02  7.281477174075E-02  7.821725444879E-02
  8.402057367273E-02  8.918425832686E-02  9.466528953126E-02  1.004831705747E-01
  1.066586033671E-01  1.118711087980E-01  1.173383542312E-01  1.230727890481E-01
  1.290874710433E-01  1.353960961578E-01  1.420130296658E-01  1.471870937611E-01
  1.525496683003E-01  1.581076214217E-01  1.638680714953E-01  1.698383962400E-01
  1.760262421726E-01  1.824395344007E-01  1.890864867735E-01  1.959756124011E-01
  2.031157345580E-01  2.105159979834E-01  2.155986962387E-01  2.208041111607E-01
  2.261352056205E-01  2.315950140250E-01  2.371866440437E-01  2.429132783775E-01
  2.487781765706E-01  2.547846768657E-01  2.609361981040E-01  2.672362416710E-01
  2.736883934899E-01  2.802963260623E-01  2.870638005588E-01  2.939946689595E-01
  3.010928762468E-01  3.083624626509E-01  3.158075659492E-01  3.234324238214E-01
  3.312413762622E-01  3.392388680507E-01  3.474294512809E-01  3.558177879526E-01
  3.644086526249E-01  3.732069351339E-01  3.822176433758E-01  3.914459061574E-01
  4.008969761157E-01  4.105762327070E-01  4.204891852695E-01  4.255350554928E-01
  4.306414761587E-01  4.358091738726E-01  4.410388839590E-01  4.463313505666E-01
  4.516873267734E-01  4.571075746946E-01  4.625928655910E-01  4.681439799781E-01
  4.737617077378E-01  4.794468482307E-01  4.852002104094E-01  4.910226129343E-01
  4.969148842895E-01  5.028778629010E-01  5.089123972558E-01  5.150193460229E-01
  5.211995781752E-01  5.274539731133E-01  5.337834207906E-01  5.401888218401E-01
  5.466710877022E-01  5.532311407546E-01  5.598699144437E-01  5.665883534170E-01
  5.733874136580E-01  5.802680626219E-01  5.872312793734E-01  5.942780547259E-01
  6.014093913826E-01  6.086263040792E-01  6.159298197281E-01  6.233209775648E-01
  6.308008292956E-01  6.383704392472E-01  6.460308845181E-01  6.537832551324E-01
  6.616286541939E-01  6.695681980443E-01  6.776030164208E-01  6.857342526179E-01
  6.939630636493E-01  7.022906204131E-01  7.107181078580E-01  7.192467251523E-01
  7.278776858541E-01  7.366122180844E-01  7.454515647014E-01  7.543969834778E-01
  7.634497472795E-01  7.726111442469E-01  7.818824779779E-01  7.912650677136E-01
  8.007602485262E-01  8.103693715085E-01  8.200938039666E-01  8.299349296142E-01
  8.398941487695E-01  8.499728785548E-01  8.601725530974E-01  8.704946237346E-01
  8.809405592194E-01  8.915118459301E-01  9.022099880812E-01  9.130365079382E-01
  9.239929460335E-01  9.350808613859E-01  9.463018317225E-01  9.576574537032E-01
  9.691493431476E-01  9.807791352654E-01  9.925484848885E-01  1.004459066707E+00
  1.016512575508E+00  1.028710726414E+00  1.041055255131E+00  1.053547918192E+00
  1.066190493211E+00  1.078984779129E+00  1.091932596479E+00  1.105035787636E+00
  1.118296217088E+00  1.131715771693E+00  1.145296360953E+00  1.159039917285E+00
  1.172948396292E+00  1.187023777048E+00  1.201268062372E+00  1.215683279121E+00
  1.230271478470E+00  1.245034736212E+00  1.259975153047E+00  1.275094854883E+00
  1.290395993142E+00  1.305880745059E+00  1.321551314000E+00  1.337409929768E+00
  1.353458848925E+00  1.369700355112E+00  1.386136759374E+00  1.402770400486E+00
  1.419603645292E+00  1.436638889036E+00  1.453878555704E+00  1.471325098372E+00
  1.488980999553E+00  1.506848771548E+00  1.524930956806E+00  1.543230128288E+00
  1.561748889827E+00  1.580489876505E+00  1.599455755023E+00  1.618649224084E+00
  1.638073014773E+00  1.657729890950E+00  1.677622649641E+00  1.697754121437E+00
  1.718127170894E+00  1.738744696945E+00  1.759609633308E+00  1.780724948908E+00
  1.802093648295E+00  1.823718772074E+00  1.845603397339E+00  1.867750638107E+00
  1.890163645765E+00  1.912845609514E+00  1.935799756828E+00  1.959029353910E+00
  1.982537706157E+00  2.006328158631E+00  2.030404096534E+00  2.054768945693E+00
  2.079426173041E+00  2.104379287117E+00  2.129631838563E+00  2.155187420626E+00
  2.181049669673E+00  2.207222265709E+00  2.233708932898E+00  2.260513440092E+00
  2.287639601374E+00  2.315091276590E+00  2.342872371909E+00  2.370986840372E+00
  2.399438682457E+00  2.428231946646E+00  2.457370730006E+00  2.486859178766E+00
  2.516701488911E+00  2.546901906778E+00  2.577464729659E+00  2.608394306415E+00
  2.639695038092E+00  2.671371378549E+00  2.703427835092E+00  2.735868969113E+00
  2.768699396742E+00  2.801923789503E+00  2.835546874977E+00  2.869573437477E+00
  2.904008318727E+00  2.938856418551E+00  2.974122695574E+00  3.009812167921E+00
  3.045929913936E+00  3.082481072903E+00  3.119470845778E+00  3.156904495927E+00
  3.194787349879E+00  3.233124798077E+00  3.271922295654E+00  3.311185363202E+00
  3.350919587560E+00  3.391130622611E+00  3.431824190082E+00  3.473006080363E+00
  3.514682153328E+00  3.556858339168E+00  3.599540639238E+00  3.642735126908E+00
  3.686447948431E+00  3.730685323813E+00  3.775453547698E+00  3.820758990271E+00
  3.866608098154E+00  3.913007395332E+00  3.959963484076E+00  4.007483045885E+00
  4.055572842435E+00  4.104239716545E+00  4.153490593143E+00  4.203332480261E+00
  4.253772470024E+00  4.304817739664E+00  4.356475552540E+00  4.408753259171E+00
  4.461658298281E+00  4.515198197860E+00  4.569380576234E+00  4.624213143149E+00
  4.679703700867E+00  4.735860145277E+00  4.792690467021E+00  4.850202752625E+00
  4.908405185656E+00  4.967306047884E+00  5.026913720459E+00  5.087236685104E+00
  5.148283525326E+00  5.210062927630E+00  5.272583682761E+00  5.335854686954E+00
  5.399884943198E+00  5.464683562516E+00  5.530259765266E+00  5.596622882449E+00
  5.663782357039E+00  5.731747745323E+00  5.800528718267E+00  5.870135062886E+00
  5.940576683641E+00  6.011863603845E+00  6.084005967091E+00  6.157014038696E+00
  6.230898207160E+00  6.305668985646E+00  6.381337013474E+00  6.457913057636E+00
  6.535408014327E+00  6.613832910499E+00  6.693198905425E+00  6.773517292290E+00
  6.854799499798E+00  6.937057093795E+00  7.020301778921E+00  7.104545400268E+00
  7.189799945071E+00  7.276077544412E+00  7.363390474945E+00  7.451751160644E+00
  7.541172174572E+00  7.631666240667E+00  7.723246235555E+00  7.815925190382E+00
  7.909716292666E+00  8.004632888178E+00  8.100688482836E+00  8.197896744630E+00
  8.296271505566E+00  8.395826763633E+00  8.496576684796E+00  8.598535605014E+00
  8.701718032274E+00  8.806138648661E+00  8.911812312445E+00  9.018754060195E+00
  9.126979108917E+00  9.236502858224E+00  9.347340892523E+00  9.459508983233E+00
  9.573023091032E+00  9.687899368124E+00  9.804154160542E+00  9.921804010468E+00
  1.004086565859E+01  1.016135604650E+01  1.028329231905E+01  1.040669182688E+01
  1.053157212881E+01  1.065795099435E+01  1.078584640628E+01  1.091527656316E+01
  1.104625988192E+01  1.117881500050E+01  1.131296078051E+01  1.144871630987E+01
  1.158610090559E+01  1.172513411646E+01  1.186583572586E+01  1.200822575457E+01
  1.215232446362E+01  1.229815235718E+01  1.244573018547E+01  1.259507894770E+01
  1.274621989507E+01  1.289917453381E+01  1.305396462821E+01  1.321061220375E+01
  1.336913955020E+01  1.352956922480E+01  1.369192405550E+01  1.385622714416E+01
  1.402250186989E+01  1.419077189233E+01  1.436106115504E+01  1.453339388890E+01
  1.470779461557E+01  1.488428815096E+01  1.506289960877E+01  1.524365440407E+01
  1.542657825692E+01  1.561169719600E+01  1.579903756236E+01  1.598862601310E+01
  1.618048952526E+01  1.637465539956E+01  1.657115126436E+01  1.677000507953E+01
  1.697124514049E+01  1.717490008217E+01  1.738099888316E+01  1.758957086976E+01
  1.780064572019E+01  1.801425346883E+01  1.823042451046E+01  1.844918960459E+01
  1.867057987984E+01  1.889462683840E+01  1.912136236046E+01  1.935081870879E+01
  1.958302853329E+01  1.981802487569E+01  2.005584117420E+01  2.029651126829E+01
  2.054006940351E+01  2.078655023635E+01  2.103598883919E+01  2.128842070526E+01
  2.154388175372E+01  2.180240833477E+01  2.206403723478E+01  2.232880568160E+01
  2.259675134978E+01  2.286791236598E+01  2.314232731437E+01  2.342003524214E+01
  2.370107566505E+01  2.398548857303E+01  2.427331443590E+01  2.456459420913E+01
  2.485936933964E+01  2.515768177172E+01  2.545957395298E+01  2.576508884042E+01
  2.607426990650E+01  2.638716114538E+01  2.670380707912E+01  2.702425276407E+01
  2.734854379724E+01  2.767672632281E+01  2.800884703868E+01  2.834495320315E+01
  2.868509264158E+01  2.902931375328E+01  2.937766551832E+01  2.973019750454E+01
  3.008695987460E+01  3.044800339309E+01  3.081337943381E+01  3.118313998701E+01
  3.155733766686E+01  3.193602571886E+01  3.231925802749E+01  3.270708912382E+01
  3.309957419330E+01  3.349676908362E+01  3.389873031263E+01  3.430551507638E+01
  3.471718125729E+01  3.513378743238E+01  3.555539288157E+01  3.598205759615E+01
  3.641384228730E+01  3.685080839475E+01  3.729301809549E+01  3.774053431263E+01
  3.819342072439E+01  3.865174177308E+01  3.911556267436E+01  3.958494942645E+01
  4.005996881956E+01  4.054068844540E+01  4.102717670674E+01  4.151950282723E+01
  4.201773686115E+01  4.252194970349E+01  4.303221309993E+01  4.354859965713E+01
  4.407118285301E+01
</grid-data>
</grid>
<valence-charge total-charge="22" is-unscreening-charge="yes"
 rescaled-to-z-pseudo="no">
<radfunc>
<data npts="457">
  3.960295917911E+00  3.963150848397E+00  3.971685619771E+00  3.985926012831E+00
  4.006824691666E+00  4.033496027157E+00  4.067497063426E+00  4.106443194097E+00
  4.150249154660E+00  4.201354001661E+00  4.258983699704E+00  4.321653874675E+00
  4.397436405997E+00  4.476631825649E+00  4.555794565367E+00  4.647037966684E+00
  4.752185727105E+00  4.851930462513E+00  4.964148629864E+00  5.090373639348E+00
  5.232319371803E+00  5.358473240593E+00  5.496987892107E+00  5.649039045369E+00
  5.815905570763E+00  5.998976290365E+00  6.199756584682E+00  6.362938352709E+00
  6.537728895542E+00  6.724903811154E+00  6.925281131488E+00  7.139721758742E+00
  7.369129446584E+00  7.614450207460E+00  7.876671004753E+00  8.156817562844E+00
  8.455951098779E+00  8.775163746068E+00  8.999678003779E+00  9.233947819672E+00
  9.478310704932E+00  9.733104711127E+00  9.998666674750E+00  1.027533019156E+01
  1.056342329191E+01  1.086326578620E+01  1.117516624791E+01  1.149941859970E+01
  1.183629826664E+01  1.218605785948E+01  1.254892234998E+01  1.292508369997E+01
  1.331469490650E+01  1.371786342663E+01  1.413464394768E+01  1.456503047290E+01
  1.500894769738E+01  1.546624165670E+01  1.593666963998E+01  1.641988937115E+01
  1.691544747728E+01  1.742276728122E+01  1.794113597788E+01  1.846969127987E+01
  1.900740764920E+01  1.955308226756E+01  2.010532093843E+01  2.038341034196E+01
  2.066252416085E+01  2.094242816869E+01  2.122287366583E+01  2.150359710892E+01
  2.178431976296E+01  2.206474737955E+01  2.234456990539E+01  2.262346122546E+01
  2.290107894550E+01  2.317706421839E+01  2.345104161997E+01  2.372261907922E+01
  2.399138786862E+01  2.425692266048E+01  2.451878165505E+01  2.477650678671E+01
  2.502962401445E+01  2.527764370295E+01  2.552006110070E+01  2.575635692161E+01
  2.598599803626E+01  2.620843827924E+01  2.642311937830E+01  2.662947201124E+01
  2.682691699572E+01  2.701486661689E+01  2.719272609709E+01  2.735989521123E+01
  2.751577005054E+01  2.765974493656E+01  2.779121448607E+01  2.790957582649E+01
  2.801423095999E+01  2.810458927291E+01  2.818007018565E+01  2.824010593626E+01
  2.828414448926E+01  2.831165255909E+01  2.832211873547E+01  2.831505669601E+01
  2.829000848874E+01  2.824654786550E+01  2.818428364435E+01  2.810286307719E+01
  2.800197519661E+01  2.788135411372E+01  2.774078223708E+01  2.758009338097E+01
  2.739917572979E+01  2.719797462450E+01  2.697649513602E+01  2.673480439028E+01
  2.647303360991E+01  2.619137983801E+01  2.589010731088E+01  2.556954844826E+01
  2.523010443234E+01  2.487224534944E+01  2.449650987249E+01  2.410350446607E+01
  2.369390210131E+01  2.326844047250E+01  2.282791971366E+01  2.237319961885E+01
  2.190519637664E+01  2.142487883512E+01  2.093326432044E+01  2.043141403757E+01
  1.992042808799E+01  1.940144014388E+01  1.887561182305E+01  1.834412681237E+01
  1.780818479061E+01  1.726899520277E+01  1.672777093952E+01  1.618572197442E+01
  1.564404901083E+01  1.510393718798E+01  1.456654989289E+01  1.403302272124E+01
  1.350445762644E+01  1.298191729206E+01  1.246641975895E+01  1.195893333477E+01
  1.146037181074E+01  1.097159000840E+01  1.049337967800E+01  1.002646576992E+01
  9.571503101836E+00  9.129073445821E+00  8.699683062530E+00  8.283760712422E+00
  7.881656177216E+00  7.493639327338E+00  7.119899772986E+00  6.760547137270E+00
  6.415611990125E+00  6.085047478977E+00  5.768731684200E+00  5.466470717772E+00
  5.178004227620E+00  4.903018266586E+00  4.641162060798E+00  4.392054398115E+00
  4.155286630564E+00  3.930428112213E+00  3.717031554888E+00  3.514641538622E+00
  3.322804188056E+00  3.141069264300E+00  2.968992122162E+00  2.806135353450E+00
  2.652070235393E+00  2.506377967445E+00  2.368650715140E+00  2.238492473780E+00
  2.115519765416E+00  1.999362182490E+00  1.889662791286E+00  1.786078408010E+00
  1.688279759958E+00  1.595951543722E+00  1.508792391886E+00  1.426514759068E+00
  1.348844737567E+00  1.275521812240E+00  1.206298563580E+00  1.140940327322E+00
  1.079224818249E+00  1.020941725227E+00  9.658922838717E-01  9.138888326438E-01
  8.647543575770E-01  8.183220302885E-01  7.744347433863E-01  7.329446468904E-01
  6.937126888097E-01  6.566081625842E-01  6.215082636909E-01  5.882976573423E-01
  5.568680588633E-01  5.271178280200E-01  4.989515782932E-01  4.722798018387E-01
  4.470185106471E-01  4.230888942190E-01  4.004169938951E-01  3.789333938285E-01
  3.585729284523E-01  3.392744061870E-01  3.209803490341E-01  3.036367476278E-01
  2.871928312482E-01  2.716008522558E-01  2.568158843628E-01  2.427956341333E-01
  2.295002650856E-01  2.168922337569E-01  2.049361370932E-01  1.935985705332E-01
  1.828479961210E-01  1.726546201070E-01  1.629902793644E-01  1.538283360768E-01
  1.451435801339E-01  1.369121386990E-01  1.291113924397E-01  1.217198979372E-01
  1.147173158148E-01  1.080843441540E-01  1.018026567921E-01  9.585484611943E-02
  9.022437002042E-02  8.489550262787E-02  7.985328858130E-02  7.508350050444E-02
  7.057259943776E-02  6.630769798276E-02  6.227652593402E-02  5.846739819365E-02
  5.486918477977E-02  5.147128275696E-02  4.826358993183E-02  4.523648017065E-02
  4.238078020911E-02  3.968774783634E-02  3.714905134614E-02  3.475675015855E-02
  3.250327652414E-02  3.038141823077E-02  2.838430224488E-02  2.650537921403E-02
  2.473840878009E-02  2.307744564481E-02  2.151682633980E-02  2.005115665606E-02
  1.867529969181E-02  1.738436448095E-02  1.617369516684E-02  1.503886068905E-02
  1.397564495251E-02  1.298003745095E-02  1.204822431765E-02  1.117657977882E-02
  1.036165798591E-02  9.600185204670E-03  8.889052340295E-03  8.225307779034E-03
  7.606150527953E-03  7.028923635805E-03  6.491107879082E-03  5.990315698512E-03
  5.524285372399E-03  5.090875414310E-03  4.688059183670E-03  4.313919698889E-03
  3.966644643576E-03  3.644521557364E-03  3.345933203704E-03  3.069353107790E-03
  2.813341258508E-03  2.576539968951E-03  2.357669890620E-03  2.155526176947E-03
  1.968974792188E-03  1.796948962121E-03  1.638445763254E-03  1.492522847468E-03
  1.358295299208E-03  1.234932622405E-03  1.121655854375E-03  1.017734803952E-03
  9.224854110321E-04  8.352672246890E-04  7.554809968413E-04  6.825663883921E-04
  6.159997845768E-04  5.552922161323E-04  4.999873827509E-04  4.496597751545E-04
  4.039128920106E-04  3.623775478228E-04  3.247102678685E-04  2.905917662263E-04
  2.597255029466E-04  2.318363164561E-04  2.066691273649E-04  1.839877099553E-04
  1.635735277644E-04  1.452246298373E-04  1.287546044060E-04  1.139915869445E-04
  1.007773197530E-04  8.896626042717E-05  7.842473677237E-05  6.903014591824E-05
  6.067019557195E-05  5.324218552072E-05  4.665232764799E-05  4.081510286529E-05
  3.565265348102E-05  3.109420962852E-05  2.707554846004E-05  2.353848488069E-05
  2.043039264995E-05  1.770375471796E-05  1.531574169361E-05  1.322781736101E-05
  1.140537017431E-05  9.817369668755E-06  8.436046729980E-06  7.236596666601E-06
  6.196904032906E-06  5.297288151479E-06  4.520268289979E-06  3.850347453196E-06
  3.273813761315E-06  2.778558398413E-06  2.353909131842E-06  1.990478423250E-06
  1.680025175597E-06  1.415329187350E-06  1.190077414891E-06  9.987611766722E-07
  8.365834674502E-07  6.993755876050E-07  5.835223307352E-07  4.858950119213E-07
  4.037916589416E-07  3.348837288804E-07  2.771687526354E-07  2.289283494927E-07
  1.886910928816E-07  1.551997464069E-07  1.273824260468E-07  1.043272798243E-07
  8.526031015288E-08  6.952599630939E-08  5.657040501920E-08  4.592650588396E-08
  3.720143532578E-08  3.006547783248E-08  2.424255674139E-08  1.950204798165E-08
  1.565175073217E-08  1.253186642141E-08  1.000985458453E-08  7.976049035278E-09
  6.339931528905E-09  5.026972450213E-09  3.975959173798E-09  3.136742700870E-09
  2.468342066888E-09  1.937353923236E-09  1.516621708138E-09  1.184125017224E-09
  9.220552391687E-10  7.160483088687E-10  5.545496173577E-10  4.282897671897E-10
  3.298530327246E-10  2.533231303189E-10  1.939932730523E-10  1.481295230355E-10
  1.127782020902E-10  8.560961518147E-11  6.479161318750E-11  4.888760164645E-11
  3.677451603197E-11  2.757705486724E-11  2.061510986187E-11  1.536187502220E-11
  1.141056987131E-11  8.448089034517E-12  6.234203201934E-12  4.585194976121E-12
  3.361026030006E-12  2.455306770184E-12  1.787482659766E-12  1.296767883595E-12
  9.374516883018E-13  6.752793347773E-13  4.846713788062E-13  3.465946363174E-13
  2.469379319252E-13  1.752774296636E-13  1.239415363185E-13  8.730531171581E-14
  6.126004992588E-14  4.281605360136E-14  2.980629557856E-14  2.066620177765E-14
  1.427064411533E-14  9.813759929833E-15  6.720702315940E-15  4.583101024855E-15
  3.112057700843E-15  2.104054167960E-15  1.416330507143E-15  9.491782896771E-16
  6.332617701312E-16  4.205789618196E-16  2.780461225472E-16  1.829646122988E-16
  1.198323161131E-16  7.811109799749E-17  5.067088624068E-17  3.271040633215E-17
  2.101210133572E-17  1.343021881074E-17  8.540840949863E-18  5.403757267897E-18
  3.401276050390E-18  2.129666219591E-18  1.326408192201E-18  8.216952874340E-19
  5.062718857124E-19  3.102180846285E-19  1.890300287911E-19  1.145365203669E-19
  6.900397249275E-20  0.000000000000E+00  0.000000000000E+00  0.000000000000E+00
  0.000000000000E+00  0.000000000000E+00  0.000000000000E+00  0.000000000000E+00
  0.000000000000E+00
</data>
</radfunc>
</valence-charge>
<pseudocore-charge matching-radius="0.719246725152"
 number-of-continuous-derivatives="4">
<annotation model-charge-form="Teter function with specified parameters" />
<radfunc>
<data npts="290">
  1.741077991003E+02  1.740928015858E+02  1.740479708400E+02  1.739731839818E+02
  1.738634609968E+02  1.737234844441E+02  1.735451280487E+02  1.733409521703E+02
  1.731114516848E+02  1.728439159848E+02  1.725424841864E+02  1.722150009450E+02
  1.718194308676E+02  1.714065469192E+02  1.709943399936E+02  1.705198501442E+02
  1.699738709478E+02  1.694567457986E+02  1.688758701095E+02  1.682236359705E+02
  1.674915950228E+02  1.668422419264E+02  1.661305920091E+02  1.653509677055E+02
  1.644972367166E+02  1.635627890870E+02  1.625405163190E+02  1.617116094682E+02
  1.608256108717E+02  1.598789385880E+02  1.588678398247E+02  1.577883915418E+02
  1.566365028417E+02  1.554079194773E+02  1.540982308525E+02  1.527028799324E+02
  1.512171765255E+02  1.496363144460E+02  1.485271235415E+02  1.473719932525E+02
  1.461694441930E+02  1.449179922583E+02  1.436161538573E+02  1.422624517670E+02
  1.408554216507E+02  1.393936192843E+02  1.378756285316E+02  1.363000701147E+02
  1.346656112159E+02  1.329709759547E+02  1.312149567712E+02  1.293964267512E+02
  1.275143529162E+02  1.255678104991E+02  1.235559982161E+02  1.214782545348E+02
  1.193340749270E+02  1.171231300801E+02  1.148452850235E+02  1.125006191091E+02
  1.100894467582E+02  1.076123388685E+02  1.050701447402E+02  1.024640143538E+02
  9.979542079488E+01  9.706618258378E+01  9.427848562946E+01  9.286350392807E+01
  9.143490448100E+01  8.999307314377E+01  8.853842250624E+01  8.707139243470E+01
  8.559245057948E+01  8.410209284412E+01  8.260084381178E+01  8.108925712436E+01
  7.956791580971E+01  7.803743255220E+01  7.649844990149E+01  7.495164041459E+01
  7.339770672587E+01  7.183738153969E+01  7.027142754019E+01  6.870063721281E+01
  6.712583257187E+01  6.554786478878E+01  6.396761371524E+01  6.238598729591E+01
  6.080392086531E+01  5.922237632345E+01  5.764234118526E+01  5.606482749893E+01
  5.449087062851E+01  5.292152789654E+01  5.135787708295E+01  4.980101477672E+01
  4.825205457749E+01  4.671212514488E+01  4.518236809391E+01  4.366393573567E+01
  4.215798866320E+01  4.066569318359E+01  3.918821859800E+01  3.772673433262E+01
  3.628240692465E+01  3.485639686865E+01  3.344985532965E+01  3.206392073126E+01
  3.069971522791E+01  2.935834107233E+01  2.804087689043E+01  2.674837387793E+01
  2.548185193405E+01  2.424229574974E+01  2.303065086925E+01  2.184781974567E+01
  2.069465781252E+01  1.957196959506E+01  1.848050488663E+01  1.742095501635E+01
  1.639394923625E+01  1.540005125656E+01  1.443975595909E+01  1.351348631940E+01
  1.262159056871E+01  1.176433962697E+01  1.094192483839E+01  1.015445604025E+01
  9.401959995175E+00  8.684379215919E+00  8.001571210138E+00  7.353308170712E+00
  6.739277134777E+00  6.159080631765E+00  5.612237837453E+00  5.098186247215E+00
  4.616283877469E+00  4.165811999606E+00  3.745978405597E+00  3.355921199013E+00
  2.994713099336E+00  2.661366241383E+00  2.354837445299E+00  2.074033926133E+00
  1.817819405509E+00  1.585020581407E+00  1.374433905784E+00  1.184832613729E+00
  1.014973942196E+00  8.636064712850E-01  7.294775165787E-01  6.113404974356E-01
  5.079622034167E-01  4.181298793977E-01  3.406580494434E-01  2.743950003350E-01
  2.182288478101E-01  1.710931121702E-01  1.319717349575E-01  9.990347491759E-02
  7.398562939846E-02  5.337703664392E-02  3.730032498839E-02  2.504338662137E-02
  1.596006615839E-02  9.470067505714E-03  5.058096167299E-03  2.272267909228E-03
  7.218282395503E-04  7.424012589541E-05  5.170939745748E-05  4.272279976879E-04
  1.020224318048E-03  1.691916925004E-03  2.340472804947E-03  2.896073560807E-03
  3.315992632414E-03  3.579783491683E-03  3.684672884611E-03  3.641244653180E-03
  3.469488671838E-03  3.195276277516E-03  2.847308659686E-03  2.454568496888E-03
  2.044288242133E-03  1.640431490349E-03  1.262667455839E-03  9.258033987015E-04
  6.396264897155E-04  4.090956558516E-04  2.348158724535E-04  1.137225089565E-04
  3.990188931132E-05  5.476224089882E-06  1.486357141914E-06  1.871401399329E-05
  4.839594039661E-05  8.279482842906E-05  1.156054811953E-04  1.421884325092E-04
  1.596363640225E-04  1.666903375253E-04  1.635323704195E-04  1.514876657620E-04
  1.326735017032E-04  1.096322580579E-04  8.498342879066E-05  6.112410303113E-05
  3.999987970687E-05  2.295927322039E-05  1.069524199389E-05  3.268433090217E-06
  1.989367602964E-07  6.074999689753E-07  3.383761790559E-06  7.358383577014E-06
  1.145789521274E-05  1.482531561003E-05  1.689552567770E-05  1.742118373930E-05
  1.645179324016E-05  1.427449475242E-05  1.132952230969E-05  8.115529484007E-06
  5.099943796532E-06  2.647269807356E-06  9.742672726097E-07  1.358688425689E-07
  0.000000000000E+00  0.000000000000E+00  0.000000000000E+00  0.000000000000E+00
  0.000000000000E+00  0.000000000000E+00  0.000000000000E+00  0.000000000000E+00
  0.000000000000E+00  0.000000000000E+00  0.000000000000E+00  0.000000000000E+00
  0.000000000000E+00  0.000000000000E+00  0.000000000000E+00  0.000000000000E+00
  0.000000000000E+00  0.000000000000E+00  0.000000000000E+00  0.000000000000E+00
  0.000000000000E+00  0.000000000000E+00  0.000000000000E+00  0.000000000000E+00
  0.000000000000E+00  0.000000000000E+00  0.000000000000E+00  0.000000000000E+00
  0.000000000000E+00  0.000000000000E+00  0.000000000000E+00  0.000000000000E+00
  0.000000000000E+00  0.000000000000E+00  0.000000000000E+00  0.000000000000E+00
  0.000000000000E+00  0.000000000000E+00  0.000000000000E+00  0.000000000000E+00
  0.000000000000E+00  0.000000000000E+00  0.000000000000E+00  0.000000000000E+00
  0.000000000000E+00  0.000000000000E+00  0.000000000000E+00  0.000000000000E+00
  0.000000000000E+00  0.000000000000E+00  0.000000000000E+00  0.000000000000E+00
  0.000000000000E+00  0.000000000000E+00  0.000000000000E+00  0.000000000000E+00
  0.000000000000E+00  0.000000000000E+00  0.000000000000E+00  0.000000000000E+00
  0.000000000000E+00  0.000000000000E+00
</data>
</radfunc>
</pseudocore-charge>
<semilocal-potentials set="scalar_relativistic">
<slps n="5" l="s" rc="1.40277040049" eref="-5.29784996371">
<radfunc>
<data npts="290">
 -1.475423636544E+01 -1.475683068609E+01 -1.476458284825E+01 -1.477750572006E+01
 -1.479644435223E+01 -1.482056857224E+01 -1.485124852458E+01 -1.488628911016E+01
 -1.492557339399E+01 -1.497123184874E+01 -1.502249990529E+01 -1.507798943742E+01
 -1.514472655309E+01 -1.521404922546E+01 -1.528291860404E+01 -1.536177663825E+01
 -1.545196748129E+01 -1.553685513338E+01 -1.563159023090E+01 -1.573719169602E+01
 -1.585475225921E+01 -1.595819086693E+01 -1.607065263111E+01 -1.619278723713E+01
 -1.632526408232E+01 -1.646876702556E+01 -1.662398771531E+01 -1.674850907317E+01
 -1.688029888217E+01 -1.701963929971E+01 -1.716680326736E+01 -1.732205098424E+01
 -1.748562598880E+01 -1.765775084250E+01 -1.783862241623E+01 -1.802840678726E+01
 -1.822723376410E+01 -1.843519106579E+01 -1.857892335194E+01 -1.872673073000E+01
 -1.887860004345E+01 -1.903450561056E+01 -1.919440833749E+01 -1.935825482724E+01
 -1.952597649006E+01 -1.969748866069E+01 -1.987268972850E+01 -2.005146028651E+01
 -2.023366230564E+01 -2.041913834026E+01 -2.060771077130E+01 -2.079918109298E+01
 -2.099332924883E+01 -2.118991302230E+01 -2.138866748690E+01 -2.158930452020E+01
 -2.179151238511E+01 -2.199495538151E+01 -2.219927357012E+01 -2.240408256999E+01
 -2.260897342990E+01 -2.281351257335E+01 -2.301724181595E+01 -2.321967845359E+01
 -2.342031541898E+01 -2.361862150427E+01 -2.381404164694E+01 -2.391048959419E+01
 -2.400599727687E+01 -2.410048876728E+01 -2.419388672247E+01 -2.428611240009E+01
 -2.437708567518E+01 -2.446672505791E+01 -2.455494771225E+01 -2.464166947567E+01
 -2.472680487985E+01 -2.481026717248E+01 -2.489196834020E+01 -2.497181913277E+01
 -2.504972908860E+01 -2.512560656157E+01 -2.519935874948E+01 -2.527089172404E+01
 -2.534011046273E+01 -2.540691888248E+01 -2.547121987551E+01 -2.553291534737E+01
 -2.559190625751E+01 -2.564809266236E+01 -2.570137376143E+01 -2.575164794640E+01
 -2.579881285354E+01 -2.584276541974E+01 -2.588340194234E+01 -2.592061814305E+01
 -2.595430923627E+01 -2.598437000199E+01 -2.601069486366E+01 -2.603317797122E+01
 -2.605171328969E+01 -2.606619469343E+01 -2.607651606655E+01 -2.608257140961E+01
 -2.608425495292E+01 -2.608146127678E+01 -2.607408543888E+01 -2.606202310905E+01
 -2.604517071183E+01 -2.602342557697E+01 -2.599668609814E+01 -2.596485190031E+01
 -2.592782401583E+01 -2.588550506985E+01 -2.583779947519E+01 -2.578461363728E+01
 -2.572585616945E+01 -2.566143811930E+01 -2.559127320672E+01 -2.551527807423E+01
 -2.543337255072E+01 -2.534547992948E+01 -2.525152726179E+01 -2.515144566768E+01
 -2.504517066530E+01 -2.493264252113E+01 -2.481380662328E+01 -2.468861388055E+01
 -2.455702115038E+01 -2.441899169941E+01 -2.427449570070E+01 -2.412351077237E+01
 -2.396602256342E+01 -2.380202539280E+01 -2.363152294926E+01 -2.345452906032E+01
 -2.327106854025E+01 -2.308117812824E+01 -2.288490753009E+01 -2.268232057860E+01
 -2.247349653056E+01 -2.225853152123E+01 -2.203754020065E+01 -2.181065758015E+01
 -2.157804112235E+01 -2.133987311301E+01 -2.109636335946E+01 -2.084775226675E+01