<?xml version="1.0" encoding="UTF-8" ?>
<psml version="1.1" energy_unit="hartree" length_unit="bohr"
 uuid="205ccbb0-be46-11e7-7508-943d9b8b0068"
 xmlns="http://esl.cecam.org/PSML/ns/1.1">
<provenance creator="ONCVPSP-3.3.0+psml-3.3.0-73 (scalar-relativistic)"
 date="2017-10-31">
<annotation action="semilocal-pseudopotential-generation"
 action-cont="projectors-generation" />
<input-file name="oncvpsp-input">
<![CDATA[# atsym z nc nv iexc psfile
Pb 82 12 3 4 upf
# n l f
1 0 2.0
2 0 2.0
2 1 6.0
3 0 2.0
3 1 6.0
3 2 10.0
4 0 2.0
4 1 6.0
4 2 10.0
5 0 2.0
5 1 6.0
4 3 14.0
5 2 10.0
6 0 2.0
6 1 2.0
# lmax
2
# l rc ep ncon nbas qcut
0 2.4 0.0 4 7 3.2
1 2.4 0.0 4 8 6.1
2 2.1 0.0 4 7 7.2
# lloc lpopt rc5 dvloc0
4 5 2.1 0.0
# l nproj debl
0 2 2.7
1 2 2.7
2 2 1.0
# icmod fcfact rcfact
3 6.0 1.34
# epsh1 epsh2 depsh
-15.0 12.0 0.02
# rlmax drl
6.0 0.01
 0
]]>
</input-file>
</provenance>
<pseudo-atom-spec atomic-label="Pb" atomic-number="82" z-pseudo="14"
 flavor="Hamann&apos;s oncvpsp" relativity="scalar" spin-dft="no"
 core-corrections="yes">
<annotation pseudo-energy="-60.2118343101" />
<exchange-correlation>
<annotation oncvpsp-xc-code="4" oncvpsp-xc-type="GGA -- Perdew-Burke-Ernzerhof" />
<libxc-info number-of-functionals="2">
<functional name="Perdew, Burke &amp; Ernzerhof (GGA)" type="exchange" id="101" />
<functional name="Perdew, Burke &amp; Ernzerhof (GGA)" type="correlation"
 id="130" />
</libxc-info>
</exchange-correlation>
<valence-configuration total-valence-charge="14">
<shell n="5" l="d" occupation="10" />
<shell n="6" l="s" occupation="2" />
<shell n="6" l="p" occupation="2" />
</valence-configuration>
</pseudo-atom-spec>
<grid npts="457">
<annotation type="sampled from oncvpsp log grid"
 recipe="r(i:1..N) = r1*exp(a*(i-1)) + r=0; resampled"
 recipe-cont="r1: scale; a: step" scale="0.609756097561E-05"
 step="0.119285708653E-01" delta="0.500000000000E-02" rmax="44.0711828530" />
<grid-data>
  0.000000000000E+00  5.032510521928E-03  1.005204483031E-02  1.507967014897E-02
  2.031910874069E-02  2.548791981066E-02  3.084768604356E-02  3.602211884327E-02
  4.107285502462E-02  4.627644805099E-02  5.152104103689E-02  5.667985490806E-02
  6.235522201693E-02  6.778543968363E-02  7.281477174075E-02  7.821725444879E-02
  8.402057367273E-02  8.918425832686E-02  9.466528953126E-02  1.004831705747E-01
  1.066586033671E-01  1.118711087980E-01  1.173383542312E-01  1.230727890481E-01
  1.290874710433E-01  1.353960961578E-01  1.420130296658E-01  1.471870937611E-01
  1.525496683003E-01  1.581076214217E-01  1.638680714953E-01  1.698383962400E-01
  1.760262421726E-01  1.824395344007E-01  1.890864867735E-01  1.959756124011E-01
  2.031157345580E-01  2.105159979834E-01  2.155986962387E-01  2.208041111607E-01
  2.261352056205E-01  2.315950140250E-01  2.371866440437E-01  2.429132783775E-01
  2.487781765706E-01  2.547846768657E-01  2.609361981040E-01  2.672362416710E-01
  2.736883934899E-01  2.802963260623E-01  2.870638005588E-01  2.939946689595E-01
  3.010928762468E-01  3.083624626509E-01  3.158075659492E-01  3.234324238214E-01
  3.312413762622E-01  3.392388680507E-01  3.474294512809E-01  3.558177879526E-01
  3.644086526249E-01  3.732069351339E-01  3.822176433758E-01  3.914459061574E-01
  4.008969761157E-01  4.105762327070E-01  4.204891852695E-01  4.255350554928E-01
  4.306414761587E-01  4.358091738726E-01  4.410388839590E-01  4.463313505666E-01
  4.516873267734E-01  4.571075746946E-01  4.625928655910E-01  4.681439799781E-01
  4.737617077378E-01  4.794468482307E-01  4.852002104094E-01  4.910226129343E-01
  4.969148842895E-01  5.028778629010E-01  5.089123972558E-01  5.150193460229E-01
  5.211995781752E-01  5.274539731133E-01  5.337834207906E-01  5.401888218401E-01
  5.466710877022E-01  5.532311407546E-01  5.598699144437E-01  5.665883534170E-01
  5.733874136580E-01  5.802680626219E-01  5.872312793734E-01  5.942780547259E-01
  6.014093913826E-01  6.086263040792E-01  6.159298197281E-01  6.233209775648E-01
  6.308008292956E-01  6.383704392472E-01  6.460308845181E-01  6.537832551324E-01
  6.616286541939E-01  6.695681980443E-01  6.776030164208E-01  6.857342526179E-01
  6.939630636493E-01  7.022906204131E-01  7.107181078580E-01  7.192467251523E-01
  7.278776858541E-01  7.366122180844E-01  7.454515647014E-01  7.543969834778E-01
  7.634497472795E-01  7.726111442469E-01  7.818824779779E-01  7.912650677136E-01
  8.007602485262E-01  8.103693715085E-01  8.200938039666E-01  8.299349296142E-01
  8.398941487695E-01  8.499728785548E-01  8.601725530974E-01  8.704946237346E-01
  8.809405592194E-01  8.915118459301E-01  9.022099880812E-01  9.130365079382E-01
  9.239929460335E-01  9.350808613859E-01  9.463018317225E-01  9.576574537032E-01
  9.691493431476E-01  9.807791352654E-01  9.925484848885E-01  1.004459066707E+00
  1.016512575508E+00  1.028710726414E+00  1.041055255131E+00  1.053547918192E+00
  1.066190493211E+00  1.078984779129E+00  1.091932596479E+00  1.105035787636E+00
  1.118296217088E+00  1.131715771693E+00  1.145296360953E+00  1.159039917285E+00
  1.172948396292E+00  1.187023777048E+00  1.201268062372E+00  1.215683279121E+00
  1.230271478470E+00  1.245034736212E+00  1.259975153047E+00  1.275094854883E+00
  1.290395993142E+00  1.305880745059E+00  1.321551314000E+00  1.337409929768E+00
  1.353458848925E+00  1.369700355112E+00  1.386136759374E+00  1.402770400486E+00
  1.419603645292E+00  1.436638889036E+00  1.453878555704E+00  1.471325098372E+00
  1.488980999553E+00  1.506848771548E+00  1.524930956806E+00  1.543230128288E+00
  1.561748889827E+00  1.580489876505E+00  1.599455755023E+00  1.618649224084E+00
  1.638073014773E+00  1.657729890950E+00  1.677622649641E+00  1.697754121437E+00
  1.718127170894E+00  1.738744696945E+00  1.759609633308E+00  1.780724948908E+00
  1.802093648295E+00  1.823718772074E+00  1.845603397339E+00  1.867750638107E+00
  1.890163645765E+00  1.912845609514E+00  1.935799756828E+00  1.959029353910E+00
  1.982537706157E+00  2.006328158631E+00  2.030404096534E+00  2.054768945693E+00
  2.079426173041E+00  2.104379287117E+00  2.129631838563E+00  2.155187420626E+00
  2.181049669673E+00  2.207222265709E+00  2.233708932898E+00  2.260513440092E+00
  2.287639601374E+00  2.315091276590E+00  2.342872371909E+00  2.370986840372E+00
  2.399438682457E+00  2.428231946646E+00  2.457370730006E+00  2.486859178766E+00
  2.516701488911E+00  2.546901906778E+00  2.577464729659E+00  2.608394306415E+00
  2.639695038092E+00  2.671371378549E+00  2.703427835092E+00  2.735868969113E+00
  2.768699396742E+00  2.801923789503E+00  2.835546874977E+00  2.869573437477E+00
  2.904008318727E+00  2.938856418551E+00  2.974122695574E+00  3.009812167921E+00
  3.045929913936E+00  3.082481072903E+00  3.119470845778E+00  3.156904495927E+00
  3.194787349879E+00  3.233124798077E+00  3.271922295654E+00  3.311185363202E+00
  3.350919587560E+00  3.391130622611E+00  3.431824190082E+00  3.473006080363E+00
  3.514682153328E+00  3.556858339168E+00  3.599540639238E+00  3.642735126908E+00
  3.686447948431E+00  3.730685323813E+00  3.775453547698E+00  3.820758990271E+00
  3.866608098154E+00  3.913007395332E+00  3.959963484076E+00  4.007483045885E+00
  4.055572842435E+00  4.104239716545E+00  4.153490593143E+00  4.203332480261E+00
  4.253772470024E+00  4.304817739664E+00  4.356475552540E+00  4.408753259171E+00
  4.461658298281E+00  4.515198197860E+00  4.569380576234E+00  4.624213143149E+00
  4.679703700867E+00  4.735860145277E+00  4.792690467021E+00  4.850202752625E+00
  4.908405185656E+00  4.967306047884E+00  5.026913720459E+00  5.087236685104E+00
  5.148283525326E+00  5.210062927630E+00  5.272583682761E+00  5.335854686954E+00
  5.399884943198E+00  5.464683562516E+00  5.530259765266E+00  5.596622882449E+00
  5.663782357039E+00  5.731747745323E+00  5.800528718267E+00  5.870135062886E+00
  5.940576683641E+00  6.011863603845E+00  6.084005967091E+00  6.157014038696E+00
  6.230898207160E+00  6.305668985646E+00  6.381337013474E+00  6.457913057636E+00
  6.535408014327E+00  6.613832910499E+00  6.693198905425E+00  6.773517292290E+00
  6.854799499798E+00  6.937057093795E+00  7.020301778921E+00  7.104545400268E+00
  7.189799945071E+00  7.276077544412E+00  7.363390474945E+00  7.451751160644E+00
  7.541172174572E+00  7.631666240667E+00  7.723246235555E+00  7.815925190382E+00
  7.909716292666E+00  8.004632888178E+00  8.100688482836E+00  8.197896744630E+00
  8.296271505566E+00  8.395826763633E+00  8.496576684796E+00  8.598535605014E+00
  8.701718032274E+00  8.806138648661E+00  8.911812312445E+00  9.018754060195E+00
  9.126979108917E+00  9.236502858224E+00  9.347340892523E+00  9.459508983233E+00
  9.573023091032E+00  9.687899368124E+00  9.804154160542E+00  9.921804010468E+00
  1.004086565859E+01  1.016135604650E+01  1.028329231905E+01  1.040669182688E+01
  1.053157212881E+01  1.065795099435E+01  1.078584640628E+01  1.091527656316E+01
  1.104625988192E+01  1.117881500050E+01  1.131296078051E+01  1.144871630987E+01
  1.158610090559E+01  1.172513411646E+01  1.186583572586E+01  1.200822575457E+01
  1.215232446362E+01  1.229815235718E+01  1.244573018547E+01  1.259507894770E+01
  1.274621989507E+01  1.289917453381E+01  1.305396462821E+01  1.321061220375E+01
  1.336913955020E+01  1.352956922480E+01  1.369192405550E+01  1.385622714416E+01
  1.402250186989E+01  1.419077189233E+01  1.436106115504E+01  1.453339388890E+01
  1.470779461557E+01  1.488428815096E+01  1.506289960877E+01  1.524365440407E+01
  1.542657825692E+01  1.561169719600E+01  1.579903756236E+01  1.598862601310E+01
  1.618048952526E+01  1.637465539956E+01  1.657115126436E+01  1.677000507953E+01
  1.697124514049E+01  1.717490008217E+01  1.738099888316E+01  1.758957086976E+01
  1.780064572019E+01  1.801425346883E+01  1.823042451046E+01  1.844918960459E+01
  1.867057987984E+01  1.889462683840E+01  1.912136236046E+01  1.935081870879E+01
  1.958302853329E+01  1.981802487569E+01  2.005584117420E+01  2.029651126829E+01
  2.054006940351E+01  2.078655023635E+01  2.103598883919E+01  2.128842070526E+01
  2.154388175372E+01  2.180240833477E+01  2.206403723478E+01  2.232880568160E+01
  2.259675134978E+01  2.286791236598E+01  2.314232731437E+01  2.342003524214E+01
  2.370107566505E+01  2.398548857303E+01  2.427331443590E+01  2.456459420913E+01
  2.485936933964E+01  2.515768177172E+01  2.545957395298E+01  2.576508884042E+01
  2.607426990650E+01  2.638716114538E+01  2.670380707912E+01  2.702425276407E+01
  2.734854379724E+01  2.767672632281E+01  2.800884703868E+01  2.834495320315E+01
  2.868509264158E+01  2.902931375328E+01  2.937766551832E+01  2.973019750454E+01
  3.008695987460E+01  3.044800339309E+01  3.081337943381E+01  3.118313998701E+01
  3.155733766686E+01  3.193602571886E+01  3.231925802749E+01  3.270708912382E+01
  3.309957419330E+01  3.349676908362E+01  3.389873031263E+01  3.430551507638E+01
  3.471718125729E+01  3.513378743238E+01  3.555539288157E+01  3.598205759615E+01
  3.641384228730E+01  3.685080839475E+01  3.729301809549E+01  3.774053431263E+01
  3.819342072439E+01  3.865174177308E+01  3.911556267436E+01  3.958494942645E+01
  4.005996881956E+01  4.054068844540E+01  4.102717670674E+01  4.151950282723E+01
  4.201773686115E+01  4.252194970349E+01  4.303221309993E+01  4.354859965713E+01
  4.407118285301E+01
</grid-data>
</grid>
<valence-charge total-charge="14" is-unscreening-charge="yes"
 rescaled-to-z-pseudo="no">
<radfunc>
<data npts="457">
  1.978233354288E-02  1.978681571849E-02  1.980108949519E-02  1.982782223206E-02
  1.987365537794E-02  1.994354595281E-02  2.005115897201E-02  2.019989544708E-02
  2.039965389786E-02  2.067607089039E-02  2.104372919220E-02  2.151074163460E-02
  2.216880134150E-02  2.296544316920E-02  2.387278006528E-02  2.505595649069E-02
  2.660141453622E-02  2.824707364047E-02  3.030698589865E-02  3.288700692553E-02
  3.611991144968E-02  3.928678656370E-02  4.308122169307E-02  4.762760712617E-02
  5.307452876098E-02  5.959927635371E-02  6.741312173242E-02  7.426901042039E-02
  8.211361831450E-02  9.108695406961E-02  1.013480190840E-01  1.130771703174E-01
  1.264787244403E-01  1.417838145635E-01  1.592535073579E-01  1.791821834790E-01
  2.019011775064E-01  2.277826646741E-01  2.469979394407E-01  2.679387129717E-01
  2.907508608130E-01  3.155911514283E-01  3.426278351339E-01  3.720412276756E-01
  4.040242804312E-01  4.387831277135E-01  4.765375999544E-01  5.175216896652E-01
  5.619839549811E-01  6.101878433004E-01  6.624119150229E-01  7.189499446769E-01
  7.801108738078E-01  8.462185869047E-01  9.176114783826E-01  9.946417752600E-01
  1.077674576728E+00  1.167086568359E+00  1.263264365335E+00  1.366602435937E+00
  1.477500553675E+00  1.596360724135E+00  1.723583530987E+00  1.859563844876E+00
  2.004685839441E+00  2.159317260700E+00  2.323802899920E+00  2.409840726595E+00
  2.498457226181E+00  2.589685617204E+00  2.683556143669E+00  2.780095768126E+00
  2.879327850575E+00  2.981271813324E+00  3.085942792034E+00  3.193351273276E+00
  3.303502719031E+00  3.416397178703E+00  3.532028889337E+00  3.650385864887E+00
  3.771449475523E+00  3.895194018145E+00  4.021586279449E+00  4.150585093062E+00
  4.282140892490E+00  4.416195261805E+00  4.552680486235E+00  4.691519105051E+00
  4.832623469363E+00  4.975895307703E+00  5.121225302504E+00  5.268492680864E+00
  5.417564823202E+00  5.568296893712E+00  5.720531496727E+00  5.874098363419E+00
  6.028814073415E+00  6.184481816227E+00  6.340891197538E+00  6.497818095610E+00
  6.655024573259E+00  6.812258850939E+00  6.969255346634E+00  7.125734788282E+00
  7.281404404491E+00  7.435958199279E+00  7.589077316465E+00  7.740430499192E+00
  7.889674649851E+00  8.036455495336E+00  8.180408362229E+00  8.321159065992E+00
  8.458324917700E+00  8.591515851199E+00  8.720335672756E+00  8.844383434449E+00
  8.963254931536E+00  9.076544322926E+00  9.183845872735E+00  9.284755809539E+00
  9.378874298570E+00  9.465807520572E+00  9.545169849447E+00  9.616586119165E+00
  9.679693968649E+00  9.734146251592E+00  9.779613496348E+00  9.815786399229E+00
  9.842378332731E+00  9.859127848507E+00  9.865801153196E+00  9.862194533689E+00
  9.848136707021E+00  9.823491068823E+00  9.788157813308E+00  9.742075897018E+00
  9.685224818146E+00  9.617626183143E+00  9.539345032648E+00  9.450490899462E+00
  9.351218572466E+00  9.241728542008E+00  9.122267104385E+00  8.993126105716E+00
  8.854642308571E+00  8.707196368412E+00  8.551211410966E+00  8.387151206258E+00
  8.215517939975E+00  8.036849588199E+00  7.851716907152E+00  7.660720055442E+00
  7.464484872234E+00  7.263658840729E+00  7.058906772188E+00  6.850906251342E+00
  6.640342889277E+00  6.427905434668E+00  6.214280798327E+00  6.000149049439E+00
  5.786178444355E+00  5.573020550306E+00  5.361305526885E+00  5.151637627414E+00
  4.944590980434E+00  4.740705708487E+00  4.540484437035E+00  4.344389240953E+00
  4.152839069564E+00  3.966207683678E+00  3.784822129926E+00  3.608961768745E+00
  3.438857863115E+00  3.274693725594E+00  3.116605411767E+00  2.964682938936E+00
  2.818972000192E+00  2.679476135944E+00  2.546159317890E+00  2.418948894316E+00
  2.297738840809E+00  2.182393256843E+00  2.072750046496E+00  1.968624720591E+00
  1.869814257895E+00  1.776100964491E+00  1.687256272953E+00  1.603044426344E+00
  1.523225996133E+00  1.447561187762E+00  1.375812892530E+00  1.307749449714E+00
  1.243147088124E+00  1.181792021716E+00  1.123482179318E+00  1.068028554020E+00
  1.015256163497E+00  9.650046183714E-01  9.171283020205E-01  8.714961718339E-01
  8.279911990430E-01  7.865094717233E-01  7.469586207911E-01  7.092546184358E-01
  6.733182084166E-01  6.390740622295E-01  6.064507869369E-01  5.753802559804E-01
  5.457971969626E-01  5.176387647211E-01  4.908441547598E-01  4.653542672574E-01
  4.411114331880E-01  4.180592120321E-01  3.961423676316E-01  3.753073199145E-01
  3.555028245467E-01  3.366800193563E-01  3.187922111536E-01  3.017948525857E-01
  2.856454495389E-01  2.703034797272E-01  2.557303112297E-01  2.418891223818E-01
  2.287448232542E-01  2.162639790170E-01  2.044147353891E-01  1.931667463463E-01
  1.824911041795E-01  1.723602720716E-01  1.627480191834E-01  1.536293583208E-01
  1.449804861888E-01  1.367787262263E-01  1.290024739936E-01  1.216311450726E-01
  1.146451254262E-01  1.080257241518E-01  1.017551285574E-01  9.581636147877E-02
  9.019324075565E-02  8.487034077744E-02  7.983295600913E-02  7.506706640630E-02
  7.055930462811E-02  6.629692495836E-02  6.226777384595E-02  5.846026197862E-02
  5.486333780641E-02  5.146646243445E-02  4.825958580804E-02  4.523312411680E-02
  4.237793834812E-02  3.968531392420E-02  3.714694136072E-02  3.475489788873E-02
  3.250162998527E-02  3.037993676077E-02  2.838295415911E-02  2.650413991772E-02
  2.473725925403E-02  2.307637123485E-02  2.151581579261E-02  2.005020135391E-02
  1.867439304781E-02  1.738350146300E-02  1.617287192461E-02  1.503807426308E-02
  1.397489304860E-02  1.297931826609E-02  1.204753640670E-02  1.117592195309E-02
  1.036102923667E-02  9.599584646112E-03  8.888479167445E-03  8.224761237243E-03
  7.605629891199E-03  7.028428191691E-03  6.490636918875E-03  5.989868510932E-03
  5.523861240171E-03  5.090473612717E-03  4.687678980522E-03  4.313560355476E-03
  3.966305416267E-03  3.644201699606E-03  3.345631968240E-03  3.069069748967E-03
  2.813075034571E-03  2.576290144262E-03  2.357435737760E-03  2.155306978662E-03
  1.968769843176E-03  1.796757570638E-03  1.638267252541E-03  1.492356557012E-03
  1.358140585823E-03  1.234788861158E-03  1.121522439355E-03  1.017611148894E-03
  9.223709498124E-04  8.351614116896E-04  7.553833072032E-04  6.824763181617E-04
  6.159168507563E-04  5.552159566410E-04  4.999173563069E-04  4.495955610829E-04
  4.038540899860E-04  3.623237775524E-04  3.246611687216E-04  2.905469968167E-04
  2.596847406724E-04  2.317992570026E-04  2.066354841753E-04  1.839572136737E-04
  1.635459256554E-04  1.451996851865E-04  1.287320959052E-04  1.139713080654E-04
  1.007590781134E-04  8.894987715178E-05  7.841004585349E-05  6.901699357739E-05
  6.065843962652E-05  5.323169475780E-05  4.664298120798E-05  4.080678963752E-05
  3.564527151334E-05  3.108766555279E-05  2.706975693498E-05  2.353336805364E-05
  2.042587963844E-05  1.769978111232E-05  1.531224908115E-05  1.322475287236E-05
  1.140268605235E-05  9.815022860155E-06  8.433998499488E-06  7.234812233841E-06
  6.195352231435E-06  5.295941109673E-06  4.519101133232E-06  3.849338026808E-06
  3.272942373364E-06  2.777807581852E-06  2.353263424990E-06  1.989924167822E-06
  1.679550331375E-06  1.414923162596E-06  1.189730911570E-06  9.984660495840E-07
  8.363325963452E-07  6.991627614094E-07  5.833421430041E-07  4.857427666807E-07
  4.036632861071E-07  3.347757084750E-07  2.770780470669E-07  2.288523431883E-07
  1.886275386192E-07  1.551467177214E-07  1.273382751336E-07  1.042906003978E-07
  8.522990476221E-08  6.950084764902E-08  5.654965081098E-08  4.590941694195E-08
  3.718739644982E-08  3.005397122477E-08  2.423314756589E-08  1.949437199513E-08
  1.564550353917E-08  1.252679425790E-08  1.000574641374E-08  7.972729786662E-09
  6.337256330195E-09  5.024821719655E-09  3.974234455444E-09  3.135363139878E-09
  2.467241434502E-09  1.936478112539E-09  1.515926631825E-09  1.183574847710E-09
  9.216209393556E-10  7.157064089966E-10  5.542811995716E-10  4.280796249449E-10
  3.296889769095E-10  2.531954181378E-10  1.938941393148E-10  1.480527966176E-10
  1.127189930180E-10  8.556406009590E-11  6.475666892108E-11  4.886087832766E-11
  3.675414256243E-11  2.756157082856E-11  2.060337893187E-11  1.535301583963E-11
  1.140390100951E-11  8.443085346079E-12  6.230461297660E-12  4.582406017171E-12
  3.358954355401E-12  2.453773164747E-12  1.786351299594E-12  1.295936185857E-12
  9.368424467074E-13  6.748346474744E-13  4.843479768837E-13  3.463603027864E-13
  2.467687666221E-13  1.751557679411E-13  1.238543711449E-13  8.724310192928E-14
  6.121582357058E-14  4.278473588259E-14  2.978420713240E-14  2.065068557016E-14
  1.425978910132E-14  9.806197203864E-15  6.715455352841E-15  4.579476112064E-15
  3.109564111172E-15  2.102346246135E-15  1.415165834226E-15  9.483875926653E-16
  6.327273741150E-16  4.202194278779E-16  2.778053447491E-16  1.828041145902E-16
  1.197258349491E-16  7.804079016680E-17  5.062468680677E-17  3.268019663100E-17
  2.099244477605E-17  1.341749275282E-17  8.532643485491E-18  5.398503895375E-18
  3.397926834642E-18  2.127542157898E-18  1.325068260611E-18  8.208545476149E-19
  5.057472285605E-19  3.098924763291E-19  1.888290772484E-19  1.144132006927E-19
  6.892872605234E-20  0.000000000000E+00  0.000000000000E+00  0.000000000000E+00
  0.000000000000E+00  0.000000000000E+00  0.000000000000E+00  0.000000000000E+00
  0.000000000000E+00
</data>
</radfunc>
</valence-charge>
<pseudocore-charge matching-radius="1.05354791819"
 number-of-continuous-derivatives="4">
<annotation model-charge-form="Teter function with specified parameters" />
<radfunc>
<data npts="290">
  5.640515316364E+01  5.640288864238E+01  5.639611892734E+01  5.638482371657E+01
  5.636824763692E+01  5.634709349312E+01  5.632012679184E+01  5.628923928016E+01
  5.625449896312E+01  5.621397203253E+01  5.616827284062E+01  5.611857879146E+01
  5.605848982087E+01  5.599569694697E+01  5.593293152516E+01  5.586058871124E+01
  5.577722160857E+01  5.569813669490E+01  5.560915817214E+01  5.550906627067E+01
  5.539649566127E+01  5.529643426110E+01  5.518654920000E+01  5.506589753112E+01
  5.493345031202E+01  5.478808572015E+01  5.462858182729E+01  5.449887943959E+01
  5.435987502824E+01  5.421092703377E+01  5.405135357893E+01  5.388043055162E+01
  5.369738970000E+01  5.350141676204E+01  5.329164965577E+01  5.306717676191E+01
  5.282703533568E+01  5.257021009128E+01  5.238919880398E+01  5.219996828070E+01
  5.200217742640E+01  5.179547421364E+01  5.157949567364E+01  5.135386793236E+01
  5.111820629718E+01  5.087211540045E+01  5.061518940647E+01  5.034701228926E+01
  5.006715818874E+01  4.977519185379E+01  4.947066918095E+01  4.915313785839E+01
  4.882213812516E+01  4.847720365647E+01  4.811786258628E+01  4.774363867896E+01
  4.735405266252E+01  4.694862373619E+01  4.652687126569E+01  4.608831667975E+01
  4.563248558188E+01  4.515891009128E+01  4.466713142688E+01  4.415670274829E+01
  4.362719226685E+01  4.307818663953E+01  4.250929465702E+01  4.221727605804E+01
  4.192015123645E+01  4.161787934551E+01  4.131042172703E+01  4.099774206345E+01
  4.067980653493E+01  4.035658398160E+01  4.002804607076E+01  3.969416746911E+01
  3.935492601994E+01  3.901030292516E+01  3.866028293208E+01  3.830485452493E+01
  3.794401012078E+01  3.757774626990E+01  3.720606386014E+01  3.682896832536E+01
  3.644646985743E+01  3.605858362157E+01  3.566532997480E+01  3.526673468696E+01
  3.486282916411E+01  3.445365067359E+01  3.403924257051E+01  3.361965452499E+01
  3.319494274956E+01  3.276517022619E+01  3.233040693209E+01  3.189073006379E+01
  3.144622425841E+01  3.099698181152E+01  3.054310289053E+01  3.008469574276E+01
  2.962187689698E+01  2.915477135758E+01  2.868351278999E+01  2.820824369631E+01
  2.772911557974E+01  2.724628909657E+01  2.675993419436E+01  2.627023023471E+01
  2.577736609933E+01  2.528154027763E+01  2.478296093438E+01  2.428184595576E+01
  2.377842297200E+01  2.327292935502E+01  2.276561218919E+01  2.225672821351E+01
  2.174654373335E+01  2.123533450004E+01  2.072338555633E+01  2.021099104620E+01
  1.969845398701E+01  1.918608600246E+01  1.867420701465E+01  1.816314489363E+01
  1.765323506301E+01  1.714482006023E+01  1.663824905025E+01  1.613387729154E+01
  1.563206555345E+01  1.513317948427E+01  1.463758892940E+01  1.414566719942E+01
  1.365779028801E+01  1.317433603996E+01  1.269568327009E+01  1.222221083370E+01
  1.175429665015E+01  1.129231668121E+01  1.083664386615E+01  1.038764701650E+01
  9.945689673055E+00  9.511128929156E+00  9.084314223833E+00  8.665586109635E+00
  8.255275000089E+00  7.853699902406E+00  7.461167141569E+00  7.077969082454E+00
  6.704382857149E+00  6.340669105164E+00  5.987070734671E+00  5.643811713385E+00
  5.311095898093E+00  4.989105912214E+00  4.678002081048E+00  4.377921434647E+00
  4.088976788377E+00  3.811255911321E+00  3.544820792656E+00  3.289707016018E+00
  3.045923251610E+00  2.813450875470E+00  2.592243724806E+00  2.382227997664E+00
  2.183302304455E+00  1.995337877896E+00  1.818178946883E+00  1.651643278571E+00
  1.495522891570E+00  1.349584941645E+00  1.213572779664E+00  1.087207179768E+00
  9.701877338180E-01  8.621944062554E-01  7.628892414004E-01  6.719182131679E-01
  5.889132050453E-01  5.134941060867E-01  4.452710066386E-01  3.838464755513E-01
  3.288178988104E-01  2.797798578676E-01  2.363265245134E-01  1.980540479586E-01
  1.645629089168E-01  1.354602149449E-01  1.103619111526E-01  8.889488064983E-02
  7.069890980794E-02  5.542849457100E-02  4.275446569319E-02  3.236541288457E-02
  2.396889042129E-02  1.729238978885E-02  1.208406834671E-02  8.113226779121E-03
  5.170532169250E-03  3.067987826450E-03  1.638655422142E-03  7.361394498760E-04
  2.338484124207E-04  2.405133884672E-05  1.675212999452E-05  1.384077035601E-04
  3.305188464739E-04  5.481249765268E-04  7.582355742850E-04  9.382317944087E-04
  1.074271648296E-03  1.159731138895E-03  1.193711823872E-03  1.179642517051E-03
  1.123999274850E-03  1.035163552493E-03  9.224335835824E-04  7.951987948444E-04
  6.622815979753E-04  5.314454030533E-04  4.090623832439E-04  2.999295997825E-04
  2.072177714402E-04  1.325334261080E-04  7.607255573520E-05  3.684232164778E-05
  1.292688891453E-05  1.774115003144E-06  4.815304235578E-07  6.062719941624E-06
  1.567867978732E-05  2.682277877746E-05  3.745234221023E-05  4.606433689485E-05
  5.171688809867E-05  5.400214159041E-05  5.297906497233E-05  4.907698008856E-05
  4.298181484686E-05  3.551721599712E-05  2.753181271648E-05  1.980218239089E-05
  1.295863455314E-05  7.438043150356E-06  3.464903731510E-06  1.058863933789E-06
  6.444891321572E-08  1.968098440966E-07  1.096226608182E-06  2.383872260996E-06
  3.711978083390E-06  4.802910622063E-06  5.473590031897E-06  5.643885812035E-06
  5.329835437142E-06  4.624462930461E-06  3.670389519890E-06  2.629162426467E-06
  1.652212666266E-06  8.576276290952E-07  3.156302877748E-07  4.401699932382E-08
  0.000000000000E+00  0.000000000000E+00  0.000000000000E+00  0.000000000000E+00
  0.000000000000E+00  0.000000000000E+00  0.000000000000E+00  0.000000000000E+00
  0.000000000000E+00  0.000000000000E+00  0.000000000000E+00  0.000000000000E+00
  0.000000000000E+00  0.000000000000E+00  0.000000000000E+00  0.000000000000E+00
  0.000000000000E+00  0.000000000000E+00  0.000000000000E+00  0.000000000000E+00
  0.000000000000E+00  0.000000000000E+00  0.000000000000E+00  0.000000000000E+00
  0.000000000000E+00  0.000000000000E+00  0.000000000000E+00  0.000000000000E+00
  0.000000000000E+00  0.000000000000E+00
</data>
</radfunc>
</pseudocore-charge>
<semilocal-potentials set="scalar_relativistic">
<slps n="6" l="s" rc="2.42823194665" eref="-0.442471085121">
<radfunc>
<data npts="290">
  3.554580826386E+00  3.552399068537E+00  3.545879687065E+00  3.535011840808E+00
  3.519084822271E+00  3.498796730865E+00  3.472995206137E+00  3.443526188879E+00
  3.410487896967E+00  3.372088400853E+00  3.328970444811E+00  3.282301189012E+00
  3.226170802056E+00  3.167863998391E+00  3.109936454969E+00  3.043604525038E+00
  2.967736005737E+00  2.896324297138E+00  2.816623075916E+00  2.727772573154E+00
  2.628849897849E+00  2.541800617431E+00  2.447146552688E+00  2.344336692848E+00
  2.232802144227E+00  2.111960184780E+00  1.981219418530E+00  1.876310487932E+00
  1.765250559080E+00  1.647794588062E+00  1.523703749294E+00  1.392748112226E+00
  1.254709597161E+00  1.109385207704E+00  9.565905309460E-01  7.961634890812E-01
  6.279683177679E-01  4.518997372855E-01  3.301101997736E-01  2.047778593155E-01
  7.589966790544E-02 -5.651850483621E-02 -1.924612931488E-01 -3.319032679650E-01
 -4.748083865006E-01 -6.211294642886E-01 -7.708076755900E-01 -9.237720882856E-01
 -1.079939239455E+00 -1.239212757874E+00 -1.401483039595E+00 -1.566626982609E+00
 -1.734507786340E+00 -1.904974821350E+00 -2.077863574186E+00 -2.252995671723E+00
 -2.430178988729E+00 -2.609207841623E+00 -2.789863270610E+00 -2.971913411496E+00
 -3.155113957600E+00 -3.339208711260E+00 -3.523930223492E+00 -3.709000519506E+00
 -3.894131906922E+00 -4.079027862775E+00 -4.263383994739E+00 -4.355262604620E+00
 -4.446889071498E+00 -4.538223602374E+00 -4.629226116782E+00 -4.719856284059E+00
 -4.810073561394E+00 -4.899837232599E+00 -4.989106447576E+00 -5.077840262432E+00
 -5.165997680211E+00 -5.253537692205E+00 -5.340419319817E+00 -5.426601656957E+00
 -5.512043912929E+00 -5.596705455819E+00 -5.680545856352E+00 -5.763524932224E+00
 -5.845602792902E+00 -5.926739884909E+00 -6.006897037593E+00 -6.086035509422E+00
 -6.164117034808E+00 -6.241103871526E+00 -6.316958848749E+00 -6.391645415760E+00
 -6.465127691410E+00 -6.537370514378E+00 -6.608339494323E+00 -6.678001064007E+00
 -6.746322532480E+00 -6.813272139438E+00 -6.878819110854E+00 -6.942933715994E+00
 -7.005587325938E+00 -7.066752473725E+00 -7.126402916250E+00 -7.184513698021E+00
 -7.241061216904E+00 -7.296023291963E+00 -7.349379233491E+00 -7.401109915321E+00
 -7.451197849473E+00 -7.499627263191E+00 -7.546384178332E+00 -7.591456493133E+00
 -7.634834066207E+00 -7.676508802639E+00 -7.716474741986E+00 -7.754728147845E+00
 -7.791267598620E+00 -7.826094078987E+00 -7.859211071441E+00 -7.890624647193E+00
 -7.920343555541E+00 -7.948379310715E+00 -7.974746274998E+00 -7.999461736850E+00
 -8.022545982532E+00 -8.044022359631E+00 -8.063917330732E+00 -8.082260515338E+00
 -8.099084718078E+00 -8.114425941081E+00 -8.128323378419E+00 -8.140819390421E+00
 -8.151959455685E+00 -8.161792098681E+00 -8.170368790851E+00 -8.177743823283E+00
 -8.183974149117E+00 -8.189119194074E+00 -8.193240633662E+00 -8.196402135844E+00
 -8.198669068218E+00 -8.200108168993E+00 -8.200787181346E+00 -8.200774450990E+00
 -8.200138487094E+00 -8.198947486974E+00 -8.197268825265E+00 -8.195168508607E+00
 -8.192710597185E+00 -8.189956594846E+00 -8.186964809879E+00 -8.183789689054E+00