<?xml version="1.0" encoding="UTF-8" ?>
<psml version="1.1" energy_unit="hartree" length_unit="bohr"
 uuid="3a50eaf0-be42-11e7-593c-747cffbf5ff4"
 xmlns="http://esl.cecam.org/PSML/ns/1.1">
<provenance creator="ONCVPSP-3.3.0+psml-3.3.0-73 (scalar-relativistic)"
 date="2017-10-31">
<annotation action="semilocal-pseudopotential-generation"
 action-cont="projectors-generation" />
<input-file name="oncvpsp-input">
<![CDATA[# atsym z nc nv iexc psfile
As 33 5 3 4 upf
# n l f
1 0 2.0
2 0 2.0
2 1 6.0
3 0 2.0
3 1 6.0
3 2 10.0
4 0 2.0
4 1 3.0
# lmax
2
# l rc ep ncon nbas qcut
0 1.75 0.0 3 8 5.3
1 1.7 0.0 4 8 6.0
2 1.8 0.0 4 7 9.0
# lloc lpopt rc5 dvloc0
4 5 1.6 0.0
# l nproj debl
0 2 4.5
1 2 4.8
2 2 2.5
# icmod fcfact rcfact
3 5.0 1.4
# epsh1 epsh2 depsh
-12.0 12.0 0.02
# rlmax drl
6.0 0.01
 0
]]>
</input-file>
</provenance>
<pseudo-atom-spec atomic-label="As" atomic-number="33" z-pseudo="15"
 flavor="Hamann&apos;s oncvpsp" relativity="scalar" spin-dft="no"
 core-corrections="yes">
<annotation pseudo-energy="-95.7703448717" />
<exchange-correlation>
<annotation oncvpsp-xc-code="4" oncvpsp-xc-type="GGA -- Perdew-Burke-Ernzerhof" />
<libxc-info number-of-functionals="2">
<functional name="Perdew, Burke &amp; Ernzerhof (GGA)" type="exchange" id="101" />
<functional name="Perdew, Burke &amp; Ernzerhof (GGA)" type="correlation"
 id="130" />
</libxc-info>
</exchange-correlation>
<valence-configuration total-valence-charge="15">
<shell n="3" l="d" occupation="10" />
<shell n="4" l="s" occupation="2" />
<shell n="4" l="p" occupation="3" />
</valence-configuration>
</pseudo-atom-spec>
<grid npts="457">
<annotation type="sampled from oncvpsp log grid"
 recipe="r(i:1..N) = r1*exp(a*(i-1)) + r=0; resampled"
 recipe-cont="r1: scale; a: step" scale="0.151515151515E-04"
 step="0.119285708653E-01" delta="0.500000000000E-02" rmax="44.2319075471" />
<grid-data>
  0.000000000000E+00  5.050863755537E-03  1.008870397413E-02  1.513466471039E-02
  2.015139445527E-02  2.527754206661E-02  3.059306869357E-02  3.572479163279E-02
  4.073383894775E-02  4.589448142461E-02  5.109578544660E-02  5.621201837620E-02
  6.184054090387E-02  6.722593745724E-02  7.308032240581E-02  7.850250761159E-02
  8.432699115759E-02  8.950950742873E-02  9.501052759205E-02  1.008496260636E-01
  1.070475802516E-01  1.122790953457E-01  1.177662794620E-01  1.235216273841E-01
  1.295582445274E-01  1.358898767811E-01  1.425309418088E-01  1.477238753743E-01
  1.531060068687E-01  1.586842294782E-01  1.644656875329E-01  1.704577856578E-01
  1.766681982559E-01  1.831048793374E-01  1.897760727067E-01  1.966903225206E-01
  2.038564842315E-01  2.112837359290E-01  2.163849704493E-01  2.216093691758E-01
  2.269599057852E-01  2.324396257505E-01  2.380516480746E-01  2.437991670657E-01
  2.496854541554E-01  2.557138597605E-01  2.618878151905E-01  2.682108346005E-01
  2.746865169911E-01  2.813185482573E-01  2.881107032865E-01  2.950668481066E-01
  3.021909420873E-01  3.094870401931E-01  3.169592952915E-01  3.246119605170E-01
  3.324493916917E-01  3.404760498047E-01  3.486965035512E-01  3.571154319329E-01
  3.657376269215E-01  3.745679961859E-01  3.836115658858E-01  3.928734835326E-01
  4.023590209190E-01  4.120735771201E-01  4.220226815661E-01  4.270869537448E-01
  4.322119971898E-01  4.373985411561E-01  4.426473236499E-01  4.479590915337E-01
  4.533346006321E-01  4.587746158397E-01  4.642799112298E-01  4.698512701646E-01
  4.754894854065E-01  4.811953592314E-01  4.869697035422E-01  4.928133399847E-01
  4.987271000645E-01  5.047118252653E-01  5.107683671685E-01  5.168975875745E-01
  5.231003586254E-01  5.293775629289E-01  5.357300936840E-01  5.421588548082E-01
  5.486647610659E-01  5.552487381987E-01  5.619117230571E-01  5.686546637338E-01
  5.754785196986E-01  5.823842619350E-01  5.893728730782E-01  5.964453475551E-01
  6.036026917258E-01  6.108459240265E-01  6.181760751148E-01  6.255941880162E-01
  6.331013182724E-01  6.406985340917E-01  6.483869165008E-01  6.561675594988E-01
  6.640415702128E-01  6.720100690553E-01  6.800741898840E-01  6.882350801626E-01
  6.964939011246E-01  7.048518279380E-01  7.133100498733E-01  7.218697704718E-01
  7.305322077174E-01  7.392985942101E-01  7.481701773406E-01  7.571482194687E-01
  7.662339981023E-01  7.754288060795E-01  7.847339517525E-01  7.941507591735E-01
  8.036805682836E-01  8.133247351030E-01  8.230846319242E-01  8.329616475073E-01
  8.429571872774E-01  8.530726735247E-01  8.633095456070E-01  8.736692601543E-01
  8.841532912762E-01  8.947631307715E-01  9.055002883407E-01  9.163662918008E-01
  9.273626873024E-01  9.384910395501E-01  9.497529320247E-01  9.611499672090E-01
  9.726837668155E-01  9.843559720172E-01  9.961682436815E-01  1.008122262606E+00
  1.020219729757E+00  1.032462366514E+00  1.044851914912E+00  1.057390137891E+00
  1.070078819546E+00  1.082919765380E+00  1.095914802565E+00  1.109065780196E+00
  1.122374569558E+00  1.135843064393E+00  1.149473181165E+00  1.163266859339E+00
  1.177226061651E+00  1.191352774391E+00  1.205649007684E+00  1.220116795776E+00
  1.234758197326E+00  1.249575295693E+00  1.264570199242E+00  1.279745041633E+00
  1.295101982132E+00  1.310643205918E+00  1.326370924389E+00  1.342287375482E+00
  1.358394823987E+00  1.374695561875E+00  1.391191908618E+00  1.407886211521E+00
  1.424780846059E+00  1.441878216212E+00  1.459180754807E+00  1.476690923864E+00
  1.494411214951E+00  1.512344149530E+00  1.530492279324E+00  1.548858186676E+00
  1.567444484916E+00  1.586253818735E+00  1.605288864560E+00  1.624552330935E+00
  1.644046958906E+00  1.663775522413E+00  1.683740828682E+00  1.703945718626E+00
  1.724393067250E+00  1.745085784057E+00  1.766026813465E+00  1.787219135227E+00
  1.808665764850E+00  1.830369754028E+00  1.852334191076E+00  1.874562201369E+00
  1.897056947786E+00  1.919821631159E+00  1.942859490733E+00  1.966173804622E+00
  1.989767890277E+00  2.013645104960E+00  2.037808846220E+00  2.062262552375E+00
  2.087009703003E+00  2.112053819439E+00  2.137398465272E+00  2.163047246856E+00
  2.189003813818E+00  2.215271859584E+00  2.241855121899E+00  2.268757383362E+00
  2.295982471962E+00  2.323534261625E+00  2.351416672765E+00  2.379633672838E+00
  2.408189276912E+00  2.437087548235E+00  2.466332598814E+00  2.495928590000E+00
  2.525879733080E+00  2.556190289877E+00  2.586864573355E+00  2.617906948235E+00
  2.649321831614E+00  2.681113693594E+00  2.713287057917E+00  2.745846502612E+00
  2.778796660643E+00  2.812142220571E+00  2.845887927218E+00  2.880038582344E+00
  2.914599045332E+00  2.949574233876E+00  2.984969124683E+00  3.020788754179E+00
  3.057038219229E+00  3.093722677860E+00  3.130847349994E+00  3.168417518194E+00
  3.206438528413E+00  3.244915790754E+00  3.283854780243E+00  3.323261037606E+00
  3.363140170057E+00  3.403497852097E+00  3.444339826323E+00  3.485671904239E+00
  3.527499967089E+00  3.569829966694E+00  3.612667926295E+00  3.656019941410E+00
  3.699892180707E+00  3.744290886876E+00  3.789222377518E+00  3.834693046048E+00
  3.880709362601E+00  3.927277874952E+00  3.974405209452E+00  4.022098071965E+00
  4.070363248829E+00  4.119207607815E+00  4.168638099108E+00  4.218661756298E+00
  4.269285697373E+00  4.320517125742E+00  4.372363331251E+00  4.424831691226E+00
  4.477929671520E+00  4.531664827579E+00  4.586044805510E+00  4.641077343176E+00
  4.696770271294E+00  4.753131514549E+00  4.810169092724E+00  4.867891121837E+00
  4.926305815299E+00  4.985421485082E+00  5.045246542903E+00  5.105789501418E+00
  5.167058975435E+00  5.229063683140E+00  5.291812447338E+00  5.355314196706E+00
  5.419577967067E+00  5.484612902671E+00  5.550428257503E+00  5.617033396593E+00
  5.684437797353E+00  5.752651050921E+00  5.821682863532E+00  5.891543057894E+00
  5.962241574589E+00  6.033788473484E+00  6.106193935166E+00  6.179468262388E+00
  6.253621881536E+00  6.328665344115E+00  6.404609328244E+00  6.481464640183E+00
  6.559242215865E+00  6.637953122456E+00  6.717608559925E+00  6.798219862644E+00
  6.879798500996E+00  6.962356083008E+00  7.045904356004E+00  7.130455208276E+00
  7.216020670775E+00  7.302612918825E+00  7.390244273851E+00  7.478927205137E+00
  7.568674331599E+00  7.659498423578E+00  7.751412404661E+00  7.844429353517E+00
  7.938562505759E+00  8.033825255828E+00  8.130231158898E+00  8.227793932805E+00
  8.326527459998E+00  8.426445789518E+00  8.527563138992E+00  8.629893896660E+00
  8.733452623420E+00  8.838254054901E+00  8.944313103560E+00  9.051644860803E+00
  9.160264599132E+00  9.270187774322E+00  9.381430027614E+00  9.494007187945E+00
  9.607935274201E+00  9.723230497491E+00  9.839909263461E+00  9.957988174622E+00
  1.007748403272E+01  1.019841384111E+01  1.032079480720E+01  1.044464434489E+01
  1.056998007703E+01  1.069681983795E+01  1.082518167601E+01  1.095508385612E+01
  1.108654486239E+01  1.121958340074E+01  1.135421840155E+01  1.149046902237E+01
  1.162835465064E+01  1.176789490645E+01  1.190910964532E+01  1.205201896107E+01
  1.219664318860E+01  1.234300290686E+01  1.249111894175E+01  1.264101236905E+01
  1.279270451748E+01  1.294621697169E+01  1.310157157535E+01  1.325879043425E+01
  1.341789591946E+01  1.357891067049E+01  1.374185759854E+01  1.390675988972E+01
  1.407364100840E+01  1.424252470050E+01  1.441343499691E+01  1.458639621687E+01
  1.476143297147E+01  1.493857016713E+01  1.511783300913E+01  1.529924700524E+01
  1.548283796931E+01  1.566863202494E+01  1.585665560924E+01  1.604693547655E+01
  1.623949870227E+01  1.643437268670E+01  1.663158515894E+01  1.683116418084E+01
  1.703313815101E+01  1.723753580883E+01  1.744438623853E+01  1.765371887339E+01
  1.786556349987E+01  1.807995026187E+01  1.829690966501E+01  1.851647258100E+01
  1.873867025197E+01  1.896353429499E+01  1.919109670653E+01  1.942138986701E+01
  1.965444654541E+01  1.989029990396E+01  2.012898350281E+01  2.037053130484E+01
  2.061497768050E+01  2.086235741266E+01  2.111270570162E+01  2.136605817003E+01
  2.162245086807E+01  2.188192027849E+01  2.214450332183E+01  2.241023736170E+01
  2.267916021004E+01  2.295131013256E+01  2.322672585415E+01  2.350544656440E+01
  2.378751192317E+01  2.407296206625E+01  2.436183761104E+01  2.465417966238E+01
  2.495002981832E+01  2.524943017614E+01  2.555242333826E+01  2.585905241832E+01
  2.616936104734E+01  2.648339337990E+01  2.680119410046E+01  2.712280842967E+01
  2.744828213082E+01  2.777766151639E+01  2.811099345459E+01  2.844832537605E+01
  2.878970528056E+01  2.913518174393E+01  2.948480392485E+01  2.983862157195E+01
  3.019668503081E+01  3.055904525118E+01  3.092575379420E+01  3.129686283973E+01
  3.167242519381E+01  3.205249429613E+01  3.243712422768E+01  3.282636971842E+01
  3.322028615504E+01  3.361892958890E+01  3.402235674397E+01  3.443062502489E+01
  3.484379252519E+01  3.526191803549E+01  3.568506105192E+01  3.611328178454E+01
  3.654664116596E+01  3.698520085995E+01  3.742902327027E+01  3.787817154951E+01
  3.833270960811E+01  3.879270212340E+01  3.925821454888E+01  3.972931312347E+01
  4.020606488095E+01  4.068853765952E+01  4.117680011144E+01  4.167092171277E+01
  4.217097277333E+01  4.267702444661E+01  4.318914873997E+01  4.370741852485E+01
  4.423190754715E+01
</grid-data>
</grid>
<valence-charge total-charge="15" is-unscreening-charge="yes"
 rescaled-to-z-pseudo="no">
<radfunc>
<data npts="457">
  1.878198479994E-03  1.887080596075E-03  1.921960785552E-03  2.007924531763E-03
  2.185107044454E-03  2.520065339869E-03  3.114651434682E-03  4.025905851348E-03
  5.343708998330E-03  7.271570039579E-03  9.948089794170E-03  1.346066536547E-02
  1.854175096604E-02  2.482139934623E-02  3.350158787073E-02  4.353839478340E-02
  5.678035606709E-02  7.098756931320E-02  8.887120533466E-02  1.113700712290E-01
  1.396557903234E-01  1.674200936008E-01  2.007214052044E-01  2.406360306777E-01
  2.884394925547E-01  3.456400402066E-01  4.140166657162E-01  4.738790863558E-01
  5.422113216922E-01  6.201533625084E-01  7.089845310309E-01  8.101371240614E-01
  9.252105438325E-01  1.055985683144E+00  1.204439244472E+00  1.372757566837E+00
  1.563349406688E+00  1.778856967521E+00  1.937784838209E+00  2.109978422347E+00
  2.296401950485E+00  2.498068106840E+00  2.716036968456E+00  2.951414202379E+00
  3.205348397052E+00  3.479027392027E+00  3.773673458027E+00  4.090537167564E+00
  4.430889785255E+00  4.796013997010E+00  5.187192789135E+00  5.605696282686E+00
  6.052766326070E+00  6.529598650794E+00  7.037322402639E+00  7.576976874603E+00
  8.149485290145E+00  8.755625517193E+00  9.395997636664E+00  1.007098834576E+01
  1.078073224778E+01  1.152507016848E+01  1.230350474581E+01  1.311515366654E+01
  1.395870107103E+01  1.483234781672E+01  1.573376148136E+01  1.619399407083E+01
  1.666002719782E+01  1.713139777888E+01  1.760760064022E+01  1.808808727852E+01
  1.857226472289E+01  1.905949451466E+01  1.954909182233E+01  2.004032471026E+01
  2.053241358032E+01  2.102453080638E+01  2.151580058253E+01  2.200529900614E+01
  2.249205441754E+01  2.297504801827E+01  2.345321479009E+01  2.392544473666E+01
  2.439058446967E+01  2.484743916068E+01  2.529477487872E+01  2.573132133321E+01
  2.615577503960E+01  2.656680292383E+01  2.696304637919E+01  2.734312578673E+01
  2.770564550731E+01  2.804919934975E+01  2.837237651581E+01  2.867376801841E+01
  2.895197356417E+01  2.920560888678E+01  2.943331351119E+01  2.963375892303E+01
  2.980565711064E+01  2.994776944043E+01  3.005891581883E+01  3.013798408678E+01
  3.018393958479E+01  3.019583481921E+01  3.017281915218E+01  3.011414843071E+01
  3.001919446245E+01  2.988745423950E+01  2.971855880468E+01  2.951228164977E+01
  2.926854653021E+01  2.898743457745E+01  2.866919058811E+01  2.831422836813E+01
  2.792313501155E+01  2.749667399600E+01  2.703578698236E+01  2.654159421271E+01
  2.601539341056E+01  2.545865709863E+01  2.487302826423E+01  2.426031431844E+01
  2.362247931470E+01  2.296163441373E+01  2.228002660507E+01  2.158002572101E+01
  2.086410980568E+01  2.013484893018E+01  1.939488757358E+01  1.864692571889E+01
  1.789369884174E+01  1.713795699749E+01  1.638244323861E+01  1.562987161771E+01
  1.488290505237E+01  1.414413334447E+01  1.341605165865E+01  1.270103977140E+01
  1.200134240315E+01  1.131905094006E+01  1.065608684018E+01  1.001418699935E+01
  9.394891326207E+00  8.799532742861E+00  8.229229788436E+00  7.684881957962E+00
  7.167167859149E+00  6.676546216039E+00  6.213259692357E+00  5.777341450200E+00
  5.368624302977E+00  4.986752266971E+00  4.631194265261E+00  4.301259692666E+00
  3.996115512373E+00  3.714804525520E+00  3.456264435232E+00  3.219347317372E+00
  3.002839112063E+00  2.805478762873E+00  2.625976654126E+00  2.463032030281E+00
  2.315349123463E+00  2.181651764472E+00  2.060696306915E+00  1.951282751438E+00
  1.852264014926E+00  1.762553345770E+00  1.681129938549E+00  1.607042847704E+00
  1.539413338370E+00  1.477435842058E+00  1.420377704715E+00  1.367577924422E+00
  1.318445076059E+00  1.272454611368E+00  1.229145706316E+00  1.188117805155E+00
  1.149026983971E+00  1.111582227896E+00  1.075541687614E+00  1.040708954224E+00
  1.006929222774E+00  9.740848754084E-01  9.420907379797E-01  9.108873768966E-01
  8.804284130607E-01  8.506773957272E-01  8.216141293172E-01  7.932199083352E-01
  7.654782173495E-01  7.383752377359E-01  7.118990756094E-01  6.860395865409E-01
  6.607881257375E-01  6.361373233429E-01  6.120808762355E-01  5.886133558766E-01
  5.657300318326E-01  5.434267105363E-01  5.216995888094E-01  5.005451216311E-01
  4.799599036071E-01  4.599405635618E-01  4.404836716549E-01  4.215856584050E-01
  4.032427449915E-01  3.854508841574E-01  3.682057111299E-01  3.515025038325E-01
  3.353361517716E-01  3.197011329402E-01  3.045914981031E-01  2.900008617977E-01
  2.759223995021E-01  2.623488503027E-01  2.492725245100E-01  2.366853156591E-01
  2.245787163535E-01  2.129438374430E-01  2.017714300446E-01  1.910519099503E-01
  1.807753839868E-01  1.709316779239E-01  1.615103655575E-01  1.525007986191E-01
  1.438921371947E-01  1.356733803618E-01  1.278333967838E-01  1.203609550240E-01
  1.132447533703E-01  1.064734489842E-01  1.000356862116E-01  9.392012392275E-02
  8.811546174597E-02  8.261046511269E-02  7.739398902394E-02  7.245500047417E-02
  6.778259948294E-02  6.336603869788E-02  5.919474154531E-02  5.525831891560E-02
  5.154658438064E-02  4.804956794967E-02  4.475752837780E-02  4.166096404844E-02
  3.875062245775E-02  3.601750833440E-02  3.345289043349E-02  3.104830704785E-02
  2.879557028422E-02  2.668676915539E-02  2.471427154270E-02  2.287072508618E-02
  2.114905706205E-02  1.954247330942E-02  1.804445626948E-02  1.664876220203E-02
  1.534941764473E-02  1.414071518079E-02  1.301720858104E-02  1.197370738547E-02
  1.100527098859E-02  1.010720229170E-02  9.275040983259E-03  8.504556506650E-03
  7.791740772277E-03  7.132800668217E-03  6.524150420865E-03  5.962403853905E-03
  5.444366590776E-03  4.967028242447E-03  4.527554618978E-03  4.123279999900E-03
  3.751699495061E-03  3.410461524198E-03  3.097360440205E-03  2.810329317833E-03
  2.547432926453E-03  2.306860902551E-03  2.086921134757E-03  1.886033371571E-03
  1.702723059409E-03  1.535615416310E-03  1.383429744446E-03  1.244973982696E-03
  1.119139498738E-03  1.004896118582E-03  9.012873901163E-04  8.074260760471E-04
  7.224898706545E-04  6.457173339876E-04  5.764040364912E-04  5.138989066007E-04
  4.576007735219E-04  4.069550972313E-04  3.614508776686E-04  3.206177351269E-04
  2.840231539683E-04  2.512698819804E-04  2.219934779325E-04  1.958600001668E-04
  1.725638293666E-04  1.518256189618E-04  1.333903669490E-04  1.170256032236E-04
  1.025196868235E-04  8.968020777344E-05  7.833248848565E-05  6.831817992574E-05
  5.949394796770E-05  5.173024559292E-05  4.491016671670E-05  3.892837767377E-05
  3.369012246745E-05  2.911029805511E-05  2.511259607136E-05  2.162870748979E-05
  1.859758683484E-05  1.596477265690E-05  1.368176108079E-05  1.170542933353E-05
  9.997506252434E-06  8.524086870534E-06  7.255188273076E-06  6.164344017658E-06
  5.228234511177E-06  4.426350839414E-06  3.740689649688E-06  3.155476793234E-06
  2.656917541446E-06  2.232971298548E-06  1.873148841879E-06  1.568330229546E-06
  1.310601622921E-06  1.093109377948E-06  9.099298639151E-07  7.559535707081E-07
  6.267821652358E-07  5.186372542176E-07  4.282797035631E-07  3.529384538362E-07
  2.902478565539E-07  2.381926371412E-07  1.950596671253E-07  1.593958005259E-07
  1.299710973512E-07  1.057468206695E-07  8.584765292335E-08  6.953763209965E-08
  5.619935915424E-08  4.531607487747E-08  3.645624731866E-08  2.926035015056E-08
  2.342954813314E-08  1.871603832565E-08  1.491482509970E-08  1.185673352662E-08
  9.402489552133E-09  7.437716731230E-09  5.868718370689E-09  4.618930905243E-09
  3.625949397389E-09  2.839039373147E-09  2.217060950422E-09  1.726741536872E-09
  1.341242414213E-09  1.038972419425E-09  8.026088039081E-10  6.182913129270E-10
  4.749606836853E-10  3.638172056987E-10  2.778788076293E-10  2.116214077789E-10
  1.606870605401E-10  1.216478104235E-10  9.181518417750E-11  6.908695906726E-11
  5.182428492325E-11  3.875344722617E-11  2.888757164527E-11  2.146441622432E-11
  1.589710112189E-11  1.173520937099E-11  8.634174416349E-12  6.331267439662E-12
  4.626823572300E-12  3.369612848780E-12  2.445479212635E-12  1.768547538699E-12
  1.274441632919E-12  9.150715123316E-13  6.546409678446E-13  4.666006450684E-13
  3.313311048741E-13  2.343874041789E-13  1.651740203421E-13  1.159483562813E-13
  8.107418036517E-14  5.646445324454E-14  3.916710747358E-14  2.705830889496E-14
  1.861621071442E-14  1.275474710591E-14  8.702028972900E-15  5.911738674827E-15
  3.998836054959E-15  2.693103276388E-15  1.805720581792E-15  1.205321855323E-15
  8.009160289142E-16  5.297593710785E-16  3.487819172150E-16  2.285538609207E-16
  1.490588536811E-16  9.674679831124E-17  6.248844012606E-17  4.016255068831E-17
  2.568474597274E-17  1.634311759023E-17  1.034601347531E-17  6.515712027736E-18
  4.081995785095E-18  2.543749757240E-18  0.000000000000E+00  0.000000000000E+00
  0.000000000000E+00  0.000000000000E+00  0.000000000000E+00  0.000000000000E+00
  0.000000000000E+00  0.000000000000E+00  0.000000000000E+00  0.000000000000E+00
  0.000000000000E+00  0.000000000000E+00  0.000000000000E+00  0.000000000000E+00
  0.000000000000E+00  0.000000000000E+00  0.000000000000E+00  0.000000000000E+00
  0.000000000000E+00  0.000000000000E+00  0.000000000000E+00  0.000000000000E+00
  0.000000000000E+00  0.000000000000E+00  0.000000000000E+00  0.000000000000E+00
  0.000000000000E+00  0.000000000000E+00  0.000000000000E+00  0.000000000000E+00
  0.000000000000E+00
</data>
</radfunc>
</valence-charge>
<pseudocore-charge matching-radius="0.648386916501"
 number-of-continuous-derivatives="4">
<annotation model-charge-form="Teter function with specified parameters" />
<radfunc>
<data npts="290">
  1.541431582572E+02  1.541280808836E+02  1.540830124053E+02  1.540078322400E+02
  1.539033258335E+02  1.537659459618E+02  1.535909145641E+02  1.533905675187E+02
  1.531653994702E+02  1.529029526192E+02  1.526073040075E+02  1.522861634236E+02
  1.518983377022E+02  1.514936341457E+02  1.510166755870E+02  1.505408323805E+02
  1.499935041207E+02  1.494753072152E+02  1.488934673695E+02  1.482404538998E+02
  1.475079217532E+02  1.468584736863E+02  1.461470890436E+02  1.453682004943E+02
  1.445158114455E+02  1.435834783327E+02  1.425642959125E+02  1.417384941523E+02
  1.408564110455E+02  1.399146070432E+02  1.389094933610E+02  1.378373355222E+02
  1.366942590308E+02  1.354762575341E+02  1.341792038751E+02  1.327988644763E+02
  1.313309175377E+02  1.297709755727E+02  1.286777209862E+02  1.275402986790E+02
  1.263573983103E+02  1.251277189410E+02  1.238499752161E+02  1.225229041984E+02
  1.211452728929E+02  1.197158864961E+02  1.182335974075E+02  1.166973150351E+02
  1.151060164235E+02  1.134587577316E+02  1.117546865756E+02  1.099930552539E+02
  1.081732348529E+02  1.062947302310E+02  1.043571958601E+02  1.023604524915E+02
  1.003045045987E+02  9.818955852688E+01  9.601604126136E+01  9.378461970006E+01
  9.149622029089E+01  8.915204886330E+01  8.675361045200E+01  8.430272887532E+01
  8.180156579335E+01  7.925263893115E+01  7.665883911106E+01  7.534612108254E+01
  7.402344569557E+01  7.269128578179E+01  7.135013999976E+01  7.000053310862E+01
  6.864301619023E+01  6.727816681509E+01  6.590658914781E+01  6.452891398703E+01
  6.314579873545E+01  6.175792729483E+01  6.036600988133E+01  5.897078275592E+01
  5.757300786535E+01  5.617347238841E+01  5.477298818293E+01  5.337239112854E+01
  5.197254036069E+01  5.057431739152E+01  4.917862511323E+01  4.778638668004E+01
  4.639854426510E+01  4.501605768909E+01  4.363990291757E+01  4.227107042479E+01
  4.091056342214E+01  3.955939595001E+01  3.821859083260E+01  3.688917749578E+01
  3.557218964932E+01  3.426866283517E+01  3.297963184489E+01  3.170612801012E+01
  3.044917637116E+01  2.920979272989E+01  2.798898059444E+01  2.678772802448E+01
  2.560700438700E+01  2.444775703426E+01  2.331090791661E+01  2.219735014462E+01
  2.110794451617E+01  2.004351602587E+01  1.900485037524E+01  1.799269050402E+01
  1.700773316367E+01  1.605062555610E+01  1.512196206123E+01  1.422228107852E+01
  1.335206200835E+01  1.251172239986E+01  1.170161529261E+01  1.092202677957E+01
  1.017317381931E+01  9.455202324991E+00  8.768185557210E+00  8.112122847241E+00
  7.486938675898E+00  6.892482131864E+00  6.328526771456E+00  5.794770899545E+00
  5.290838288685E+00  4.816279350456E+00  4.370572769509E+00  3.953127606962E+00
  3.563285875500E+00  3.200325583916E+00  2.863464243881E+00  2.551862826476E+00
  2.264630150557E+00  2.000827679373E+00  1.759474696113E+00  1.539553823292E+00
  1.340016845199E+00  1.159790787112E+00  9.977841997406E-01  8.528935925281E-01
  7.240099550848E-01  6.100253023425E-01  5.098391760458E-01  4.223650331044E-01
  3.465364502109E-01  2.813130740723E-01  2.256862477128E-01  1.786842456307E-01
  1.393770541995E-01  1.068806385950E-01  8.036064371524E-02  5.903548399377E-02
  4.217878561513E-02  2.912115432550E-02  1.925125263509E-02  1.201618156075E-02
  6.921173934742E-03  3.528618462032E-03  1.456445864921E-03  3.759203108313E-04
  8.890559528701E-06  1.245655679647E-04  5.358883342346E-04  1.095589241713E-03
  1.692005801349E-03  2.244759244161E-03  2.700379698010E-03  3.027970566376E-03
  3.214999158785E-03  3.263294631512E-03  3.185325999340E-03  3.000822581793E-03
  2.733787046954E-03  2.409937594227E-03  2.054601230563E-03  1.691065059801E-03
  1.339377581121E-03  1.015577758686E-03  7.313166525205E-04  4.938252279312E-04
  3.061730613987E-04  1.677564170384E-04  7.495084458962E-05  2.186317399778E-05
  1.120526423619E-06  4.639540154950E-06  2.432707794740E-05  5.267375023456E-05
  8.321304487849E-05  1.108309981025E-04  1.319234249108E-04  1.444090030489E-04
  1.476162765293E-04  1.420703198069E-04  1.292099380196E-04  1.110686157555E-04
  8.995192251551E-05  6.814091511568E-05  4.764563612630E-05  3.002566799629E-05
  1.628657790157E-05  6.852768347633E-06  1.609527462231E-06  6.734690845629E-10
  1.163688575290E-06  4.082011698390E-06  7.734333168260E-06  1.122317002312E-05
  1.386930878690E-05  1.526428579244E-05  1.527919560805E-05  1.403398780352E-05
  1.183629157828E-05  9.102102167510E-06  6.272003643766E-06  3.735898991760E-06
  1.776672114753E-06  5.392847392162E-07  2.717755952615E-08  0.000000000000E+00
  0.000000000000E+00  0.000000000000E+00  0.000000000000E+00  0.000000000000E+00
  0.000000000000E+00  0.000000000000E+00  0.000000000000E+00  0.000000000000E+00
  0.000000000000E+00  0.000000000000E+00  0.000000000000E+00  0.000000000000E+00
  0.000000000000E+00  0.000000000000E+00  0.000000000000E+00  0.000000000000E+00
  0.000000000000E+00  0.000000000000E+00  0.000000000000E+00  0.000000000000E+00
  0.000000000000E+00  0.000000000000E+00  0.000000000000E+00  0.000000000000E+00
  0.000000000000E+00  0.000000000000E+00  0.000000000000E+00  0.000000000000E+00
  0.000000000000E+00  0.000000000000E+00  0.000000000000E+00  0.000000000000E+00
  0.000000000000E+00  0.000000000000E+00  0.000000000000E+00  0.000000000000E+00
  0.000000000000E+00  0.000000000000E+00  0.000000000000E+00  0.000000000000E+00
  0.000000000000E+00  0.000000000000E+00  0.000000000000E+00  0.000000000000E+00
  0.000000000000E+00  0.000000000000E+00  0.000000000000E+00  0.000000000000E+00
  0.000000000000E+00  0.000000000000E+00  0.000000000000E+00  0.000000000000E+00
  0.000000000000E+00  0.000000000000E+00  0.000000000000E+00  0.000000000000E+00
  0.000000000000E+00  0.000000000000E+00  0.000000000000E+00  0.000000000000E+00
  0.000000000000E+00  0.000000000000E+00  0.000000000000E+00  0.000000000000E+00
  0.000000000000E+00  0.000000000000E+00
</data>
</radfunc>
</pseudocore-charge>
<semilocal-potentials set="scalar_relativistic">
<slps n="4" l="s" rc="1.76602681347" eref="-0.532653269890">
<radfunc>
<data npts="290">
  8.280631520716E+01  8.272170128828E+01  8.246957012803E+01  8.205161508111E+01
  8.147602983140E+01  8.072879841369E+01  7.979192886475E+01  7.873985863112E+01
  7.758253862075E+01  7.626599050919E+01  7.482304600856E+01  7.330186708742E+01
  7.152589753026E+01  6.974023891660E+01  6.771932965218E+01  6.578783807848E+01
  6.366403016805E+01  6.174346889857E+01  5.968451260097E+01  5.748788252776E+01
  5.515648425335E+01  5.319781129223E+01  5.116011506620E+01  4.904834737497E+01
  4.686852595981E+01  4.462770345047E+01  4.233390582842E+01  4.058412098306E+01
  3.881357674199E+01  3.702652396111E+01  3.522738110761E+01  3.342069208852E+01
  3.161108147176E+01  2.980320804200E+01  2.800171769676E+01  2.621119671539E+01
  2.443612642256E+01  2.268084022031E+01  2.152369670268E+01  2.037836785904E+01
  1.924597987202E+01  1.812760677989E+01  1.702426719046E+01  1.593692147962E+01
  1.486646948563E+01  1.381374870374E+01  1.277953297982E+01  1.176453169563E+01
  1.076938943317E+01  9.794686100393E+00  8.840937496428E+00  7.908596290368E+00
  6.998053384741E+00  6.109639631927E+00  5.243627869932E+00  4.400235242487E+00
  3.579625767601E+00  2.781913118490E+00  2.007163581060E+00  1.255399152917E+00
  5.266007501230E-01 -1.792885103789E-01 -8.623599827724E-01 -1.522736146575E+00
 -2.160567268392E+00 -2.776028094132E+00 -3.369314592362E+00 -3.657708725975E+00
 -3.940640767683E+00 -4.218139777752E+00 -4.490235561992E+00 -4.756958580994E+00
 -5.018339861417E+00 -5.274410909769E+00 -5.525203628235E+00 -5.770750233739E+00
 -6.011083179545E+00 -6.246235080250E+00 -6.476238640282E+00 -6.701126586264E+00
 -6.920931603642E+00 -7.135686277996E+00 -7.345423041509E+00 -7.550174125103E+00
 -7.749971516770E+00 -7.944846926708E+00 -8.134831759855E+00 -8.319957096440E+00
 -8.500253681204E+00 -8.675751921896E+00 -8.846481897634E+00 -9.012473377681E+00
 -9.173755851069E+00 -9.330358567433E+00 -9.482310589218E+00 -9.629640855308E+00
 -9.772378255833E+00 -9.910551717708E+00 -1.004419030018E+01 -1.017332329929E+01
 -1.029798035995E+01 -1.041819159389E+01 -1.053398770157E+01 -1.064540009567E+01
 -1.075246102388E+01 -1.085520368813E+01 -1.095366235783E+01 -1.104787247418E+01
 -1.113787074320E+01 -1.122369521513E+01 -1.130538534818E+01 -1.138298205506E+01
 -1.145652773111E+01 -1.152606626345E+01 -1.159164302075E+01 -1.165330482369E+01
 -1.171109989660E+01 -1.176507780038E+01 -1.181528934713E+01 -1.186178649629E+01
 -1.190462223146E+01 -1.194385041659E+01 -1.197952562865E+01 -1.201170296308E+01
 -1.204043780690E+01 -1.206578557277E+01 -1.208780138635E+01 -1.210653971788E+01
 -1.212205394866E+01 -1.213439586289E+01 -1.214361505663E+01 -1.214975825831E+01
 -1.215286855946E+01 -1.215298456188E+01 -1.215013945712E+01 -1.214436006811E+01
 -1.213566589992E+01 -1.212406826727E+01 -1.210956958910E+01 -1.209216296312E+01
 -1.207183215208E+01 -1.204855212438E+01 -1.202229028813E+01 -1.199300853574E+01
 -1.196066617072E+01 -1.192522371956E+01 -1.188664754294E+01 -1.184491506095E+01
 -1.180002031023E+01 -1.175197947122E+01 -1.170083595507E+01 -1.164666462684E+01
 -1.158957476023E+01 -1.152971135021E+01 -1.146725442709E+01 -1.140241598798E+01