<?xml version="1.0" encoding="UTF-8" ?>
<psml version="1.1" energy_unit="hartree" length_unit="bohr"
 uuid="605d5aa0-be63-11e7-7139-eb747fcfb52c"
 xmlns="http://esl.cecam.org/PSML/ns/1.1">
<provenance creator="ONCVPSP-3.3.0+psml-3.3.0-73 (scalar-relativistic)"
 date="2017-10-31">
<annotation action="semilocal-pseudopotential-generation"
 action-cont="projectors-generation" />
<input-file name="oncvpsp-input">
<![CDATA[# atsym z nc nv iexc psfile
As 33 3 5 4 upf
# n l f
1 0 2.0
2 0 2.0
2 1 6.0
3 0 2.0
3 1 6.0
3 2 10.0
4 0 2.0
4 1 3.0
# lmax
2
# l rc ep ncon nbas qcut
0 1.2 0.0 4 7 9.6
1 1.4 0.0 4 7 10.0
2 1.6 0.0 4 7 10.0
# lloc lpopt rc5 dvloc0
4 5 1.2 0.0
# l nproj debl
0 2 1.0
1 2 1.0
2 2 3.5
# icmod fcfact rcfact
3 2.7 1.5
# epsh1 epsh2 depsh
-12.0 12.0 0.02
# rlmax drl
6.0 0.01
 0
]]>
</input-file>
</provenance>
<pseudo-atom-spec atomic-label="As" atomic-number="33" z-pseudo="23"
 flavor="Hamann&apos;s oncvpsp" relativity="scalar" spin-dft="no"
 core-corrections="yes">
<annotation pseudo-energy="-302.484780153" />
<exchange-correlation>
<annotation oncvpsp-xc-code="4" oncvpsp-xc-type="GGA -- Perdew-Burke-Ernzerhof" />
<libxc-info number-of-functionals="2">
<functional name="Perdew, Burke &amp; Ernzerhof (GGA)" type="exchange" id="101" />
<functional name="Perdew, Burke &amp; Ernzerhof (GGA)" type="correlation"
 id="130" />
</libxc-info>
</exchange-correlation>
<valence-configuration total-valence-charge="23">
<shell n="3" l="s" occupation="2" />
<shell n="3" l="p" occupation="6" />
<shell n="3" l="d" occupation="10" />
<shell n="4" l="s" occupation="2" />
<shell n="4" l="p" occupation="3" />
</valence-configuration>
</pseudo-atom-spec>
<grid npts="457">
<annotation type="sampled from oncvpsp log grid"
 recipe="r(i:1..N) = r1*exp(a*(i-1)) + r=0; resampled"
 recipe-cont="r1: scale; a: step" scale="0.151515151515E-04"
 step="0.119285708653E-01" delta="0.500000000000E-02" rmax="44.2319075471" />
<grid-data>
  0.000000000000E+00  5.050863755537E-03  1.008870397413E-02  1.513466471039E-02
  2.015139445527E-02  2.527754206661E-02  3.059306869357E-02  3.572479163279E-02
  4.073383894775E-02  4.589448142461E-02  5.109578544660E-02  5.621201837620E-02
  6.184054090387E-02  6.722593745724E-02  7.308032240581E-02  7.850250761159E-02
  8.432699115759E-02  8.950950742873E-02  9.501052759205E-02  1.008496260636E-01
  1.070475802516E-01  1.122790953457E-01  1.177662794620E-01  1.235216273841E-01
  1.295582445274E-01  1.358898767811E-01  1.425309418088E-01  1.477238753743E-01
  1.531060068687E-01  1.586842294782E-01  1.644656875329E-01  1.704577856578E-01
  1.766681982559E-01  1.831048793374E-01  1.897760727067E-01  1.966903225206E-01
  2.038564842315E-01  2.112837359290E-01  2.163849704493E-01  2.216093691758E-01
  2.269599057852E-01  2.324396257505E-01  2.380516480746E-01  2.437991670657E-01
  2.496854541554E-01  2.557138597605E-01  2.618878151905E-01  2.682108346005E-01
  2.746865169911E-01  2.813185482573E-01  2.881107032865E-01  2.950668481066E-01
  3.021909420873E-01  3.094870401931E-01  3.169592952915E-01  3.246119605170E-01
  3.324493916917E-01  3.404760498047E-01  3.486965035512E-01  3.571154319329E-01
  3.657376269215E-01  3.745679961859E-01  3.836115658858E-01  3.928734835326E-01
  4.023590209190E-01  4.120735771201E-01  4.220226815661E-01  4.270869537448E-01
  4.322119971898E-01  4.373985411561E-01  4.426473236499E-01  4.479590915337E-01
  4.533346006321E-01  4.587746158397E-01  4.642799112298E-01  4.698512701646E-01
  4.754894854065E-01  4.811953592314E-01  4.869697035422E-01  4.928133399847E-01
  4.987271000645E-01  5.047118252653E-01  5.107683671685E-01  5.168975875745E-01
  5.231003586254E-01  5.293775629289E-01  5.357300936840E-01  5.421588548082E-01
  5.486647610659E-01  5.552487381987E-01  5.619117230571E-01  5.686546637338E-01
  5.754785196986E-01  5.823842619350E-01  5.893728730782E-01  5.964453475551E-01
  6.036026917258E-01  6.108459240265E-01  6.181760751148E-01  6.255941880162E-01
  6.331013182724E-01  6.406985340917E-01  6.483869165008E-01  6.561675594988E-01
  6.640415702128E-01  6.720100690553E-01  6.800741898840E-01  6.882350801626E-01
  6.964939011246E-01  7.048518279380E-01  7.133100498733E-01  7.218697704718E-01
  7.305322077174E-01  7.392985942101E-01  7.481701773406E-01  7.571482194687E-01
  7.662339981023E-01  7.754288060795E-01  7.847339517525E-01  7.941507591735E-01
  8.036805682836E-01  8.133247351030E-01  8.230846319242E-01  8.329616475073E-01
  8.429571872774E-01  8.530726735247E-01  8.633095456070E-01  8.736692601543E-01
  8.841532912762E-01  8.947631307715E-01  9.055002883407E-01  9.163662918008E-01
  9.273626873024E-01  9.384910395501E-01  9.497529320247E-01  9.611499672090E-01
  9.726837668155E-01  9.843559720172E-01  9.961682436815E-01  1.008122262606E+00
  1.020219729757E+00  1.032462366514E+00  1.044851914912E+00  1.057390137891E+00
  1.070078819546E+00  1.082919765380E+00  1.095914802565E+00  1.109065780196E+00
  1.122374569558E+00  1.135843064393E+00  1.149473181165E+00  1.163266859339E+00
  1.177226061651E+00  1.191352774391E+00  1.205649007684E+00  1.220116795776E+00
  1.234758197326E+00  1.249575295693E+00  1.264570199242E+00  1.279745041633E+00
  1.295101982132E+00  1.310643205918E+00  1.326370924389E+00  1.342287375482E+00
  1.358394823987E+00  1.374695561875E+00  1.391191908618E+00  1.407886211521E+00
  1.424780846059E+00  1.441878216212E+00  1.459180754807E+00  1.476690923864E+00
  1.494411214951E+00  1.512344149530E+00  1.530492279324E+00  1.548858186676E+00
  1.567444484916E+00  1.586253818735E+00  1.605288864560E+00  1.624552330935E+00
  1.644046958906E+00  1.663775522413E+00  1.683740828682E+00  1.703945718626E+00
  1.724393067250E+00  1.745085784057E+00  1.766026813465E+00  1.787219135227E+00
  1.808665764850E+00  1.830369754028E+00  1.852334191076E+00  1.874562201369E+00
  1.897056947786E+00  1.919821631159E+00  1.942859490733E+00  1.966173804622E+00
  1.989767890277E+00  2.013645104960E+00  2.037808846220E+00  2.062262552375E+00
  2.087009703003E+00  2.112053819439E+00  2.137398465272E+00  2.163047246856E+00
  2.189003813818E+00  2.215271859584E+00  2.241855121899E+00  2.268757383362E+00
  2.295982471962E+00  2.323534261625E+00  2.351416672765E+00  2.379633672838E+00
  2.408189276912E+00  2.437087548235E+00  2.466332598814E+00  2.495928590000E+00
  2.525879733080E+00  2.556190289877E+00  2.586864573355E+00  2.617906948235E+00
  2.649321831614E+00  2.681113693594E+00  2.713287057917E+00  2.745846502612E+00
  2.778796660643E+00  2.812142220571E+00  2.845887927218E+00  2.880038582344E+00
  2.914599045332E+00  2.949574233876E+00  2.984969124683E+00  3.020788754179E+00
  3.057038219229E+00  3.093722677860E+00  3.130847349994E+00  3.168417518194E+00
  3.206438528413E+00  3.244915790754E+00  3.283854780243E+00  3.323261037606E+00
  3.363140170057E+00  3.403497852097E+00  3.444339826323E+00  3.485671904239E+00
  3.527499967089E+00  3.569829966694E+00  3.612667926295E+00  3.656019941410E+00
  3.699892180707E+00  3.744290886876E+00  3.789222377518E+00  3.834693046048E+00
  3.880709362601E+00  3.927277874952E+00  3.974405209452E+00  4.022098071965E+00
  4.070363248829E+00  4.119207607815E+00  4.168638099108E+00  4.218661756298E+00
  4.269285697373E+00  4.320517125742E+00  4.372363331251E+00  4.424831691226E+00
  4.477929671520E+00  4.531664827579E+00  4.586044805510E+00  4.641077343176E+00
  4.696770271294E+00  4.753131514549E+00  4.810169092724E+00  4.867891121837E+00
  4.926305815299E+00  4.985421485082E+00  5.045246542903E+00  5.105789501418E+00
  5.167058975435E+00  5.229063683140E+00  5.291812447338E+00  5.355314196706E+00
  5.419577967067E+00  5.484612902671E+00  5.550428257503E+00  5.617033396593E+00
  5.684437797353E+00  5.752651050921E+00  5.821682863532E+00  5.891543057894E+00
  5.962241574589E+00  6.033788473484E+00  6.106193935166E+00  6.179468262388E+00
  6.253621881536E+00  6.328665344115E+00  6.404609328244E+00  6.481464640183E+00
  6.559242215865E+00  6.637953122456E+00  6.717608559925E+00  6.798219862644E+00
  6.879798500996E+00  6.962356083008E+00  7.045904356004E+00  7.130455208276E+00
  7.216020670775E+00  7.302612918825E+00  7.390244273851E+00  7.478927205137E+00
  7.568674331599E+00  7.659498423578E+00  7.751412404661E+00  7.844429353517E+00
  7.938562505759E+00  8.033825255828E+00  8.130231158898E+00  8.227793932805E+00
  8.326527459998E+00  8.426445789518E+00  8.527563138992E+00  8.629893896660E+00
  8.733452623420E+00  8.838254054901E+00  8.944313103560E+00  9.051644860803E+00
  9.160264599132E+00  9.270187774322E+00  9.381430027614E+00  9.494007187945E+00
  9.607935274201E+00  9.723230497491E+00  9.839909263461E+00  9.957988174622E+00
  1.007748403272E+01  1.019841384111E+01  1.032079480720E+01  1.044464434489E+01
  1.056998007703E+01  1.069681983795E+01  1.082518167601E+01  1.095508385612E+01
  1.108654486239E+01  1.121958340074E+01  1.135421840155E+01  1.149046902237E+01
  1.162835465064E+01  1.176789490645E+01  1.190910964532E+01  1.205201896107E+01
  1.219664318860E+01  1.234300290686E+01  1.249111894175E+01  1.264101236905E+01
  1.279270451748E+01  1.294621697169E+01  1.310157157535E+01  1.325879043425E+01
  1.341789591946E+01  1.357891067049E+01  1.374185759854E+01  1.390675988972E+01
  1.407364100840E+01  1.424252470050E+01  1.441343499691E+01  1.458639621687E+01
  1.476143297147E+01  1.493857016713E+01  1.511783300913E+01  1.529924700524E+01
  1.548283796931E+01  1.566863202494E+01  1.585665560924E+01  1.604693547655E+01
  1.623949870227E+01  1.643437268670E+01  1.663158515894E+01  1.683116418084E+01
  1.703313815101E+01  1.723753580883E+01  1.744438623853E+01  1.765371887339E+01
  1.786556349987E+01  1.807995026187E+01  1.829690966501E+01  1.851647258100E+01
  1.873867025197E+01  1.896353429499E+01  1.919109670653E+01  1.942138986701E+01
  1.965444654541E+01  1.989029990396E+01  2.012898350281E+01  2.037053130484E+01
  2.061497768050E+01  2.086235741266E+01  2.111270570162E+01  2.136605817003E+01
  2.162245086807E+01  2.188192027849E+01  2.214450332183E+01  2.241023736170E+01
  2.267916021004E+01  2.295131013256E+01  2.322672585415E+01  2.350544656440E+01
  2.378751192317E+01  2.407296206625E+01  2.436183761104E+01  2.465417966238E+01
  2.495002981832E+01  2.524943017614E+01  2.555242333826E+01  2.585905241832E+01
  2.616936104734E+01  2.648339337990E+01  2.680119410046E+01  2.712280842967E+01
  2.744828213082E+01  2.777766151639E+01  2.811099345459E+01  2.844832537605E+01
  2.878970528056E+01  2.913518174393E+01  2.948480392485E+01  2.983862157195E+01
  3.019668503081E+01  3.055904525118E+01  3.092575379420E+01  3.129686283973E+01
  3.167242519381E+01  3.205249429613E+01  3.243712422768E+01  3.282636971842E+01
  3.322028615504E+01  3.361892958890E+01  3.402235674397E+01  3.443062502489E+01
  3.484379252519E+01  3.526191803549E+01  3.568506105192E+01  3.611328178454E+01
  3.654664116596E+01  3.698520085995E+01  3.742902327027E+01  3.787817154951E+01
  3.833270960811E+01  3.879270212340E+01  3.925821454888E+01  3.972931312347E+01
  4.020606488095E+01  4.068853765952E+01  4.117680011144E+01  4.167092171277E+01
  4.217097277333E+01  4.267702444661E+01  4.318914873997E+01  4.370741852485E+01
  4.423190754715E+01
</grid-data>
</grid>
<valence-charge total-charge="23" is-unscreening-charge="yes"
 rescaled-to-z-pseudo="no">
<radfunc>
<data npts="457">
  4.197196492871E+01  4.198529170173E+01  4.202512149375E+01  4.209154371264E+01
  4.218383613587E+01  4.230508952299E+01  4.245945834059E+01  4.263599367359E+01
  4.283419445659E+01  4.306493344033E+01  4.332450507700E+01  4.360602568903E+01
  4.394539979595E+01  4.429883223642E+01  4.471442511510E+01  4.512802190769E+01
  4.560247377050E+01  4.605039827196E+01  4.655183998572E+01  4.711271347741E+01
  4.773945181277E+01  4.829292236508E+01  4.889678753821E+01  4.955504742415E+01
  5.027188676405E+01  5.105164961972E+01  5.189880291666E+01  5.258112272932E+01
  5.330582387267E+01  5.407480929196E+01  5.488993964483E+01  5.575300407270E+01
  5.666568539501E+01  5.762951895723E+01  5.864584429872E+01  5.971574874677E+01
  6.084000199449E+01  6.201898068868E+01  6.283534136676E+01  6.367582195838E+01
  6.454012556734E+01  6.542781158678E+01  6.633827899645E+01  6.727074842839E+01
  6.822424298808E+01  6.919756783521E+01  7.018928854935E+01  7.119770833129E+01
  7.222084412207E+01  7.325640175859E+01  7.430175032833E+01  7.535389593674E+01
  7.640945515956E+01  7.746462851993E+01  7.851517440638E+01  7.955638393352E+01
  8.058305734200E+01  8.158948263838E+01  8.256941728761E+01  8.351607389018E+01
  8.442211090004E+01  8.527962956643E+01  8.608017840768E+01  8.681476664419E+01
  8.747388812469E+01  8.804755736638E+01  8.852535938725E+01  8.872495379726E+01
  8.889651502714E+01  8.903865230515E+01  8.914996341962E+01  8.922903834249E+01
  8.927446317705E+01  8.928482443799E+01  8.925871367051E+01  8.919473241335E+01
  8.909149750855E+01  8.894764675862E+01  8.876184492921E+01  8.853279009228E+01
  8.825922030202E+01  8.793992059199E+01  8.757373027822E+01  8.715955054915E+01
  8.669635231868E+01  8.618318431409E+01  8.561918136555E+01  8.500357285891E+01
  8.433569130812E+01  8.361498099772E+01  8.284100664073E+01  8.201346199105E+01
  8.113217834400E+01  8.019713285283E+01  7.920845658364E+01  7.816644222574E+01
  7.707155136964E+01  7.592442126053E+01  7.472587093098E+01  7.347690661378E+01
  7.217872633345E+01  7.083272357346E+01  6.944048991653E+01  6.800381655609E+01
  6.652469457989E+01  6.500531393065E+01  6.344806095468E+01  6.185551445698E+01
  6.023044019079E+01  5.857578372109E+01  5.689466161528E+01  5.519035092942E+01
  5.346627697634E+01  5.172599938098E+01  4.997319645006E+01  4.821164790556E+01
  4.644521605614E+01  4.467782550585E+01  4.291344152582E+01  4.115604724090E+01
  3.940961981003E+01  3.767810580461E+01  3.596539601413E+01  3.427529993091E+01
  3.261152018653E+01  3.097762722985E+01  2.937703455013E+01  2.781297475837E+01
  2.628847684425E+01  2.480634492507E+01  2.336913879613E+01  2.197915657905E+01
  2.063841974428E+01  1.934866075866E+01  1.811131357541E+01  1.692750714589E+01
  1.579806208762E+01  1.472349059382E+01  1.370399961644E+01  1.273949729823E+01
  1.182960257133E+01  1.097365778182E+01  1.017074414250E+01  9.419699762059E+00
  8.719139949502E+00  8.067479448924E+00  7.462956223914E+00  6.903656383836E+00
  6.387539827028E+00  5.912466169480E+00  5.476220532129E+00  5.076538775556E+00
  4.711131797181E+00  4.377708542190E+00  4.073997424102E+00  3.797766032665E+00
  3.546839230012E+00  3.319115047928E+00  3.112577207736E+00  2.925305416175E+00
  2.755483266435E+00  2.601403967239E+00  2.461473991970E+00  2.334214828594E+00
  2.218263027897E+00  2.112368766770E+00  2.015393151322E+00  1.926304483666E+00
  1.844173371553E+00  1.768166011751E+00  1.697536957334E+00  1.631624258284E+00
  1.569845273589E+00  1.511691572815E+00  1.456723978019E+00  1.404567452633E+00
  1.354905897699E+00  1.307476854761E+00  1.262066119446E+00  1.218500746126E+00
  1.176636280928E+00  1.136342780134E+00  1.097501970877E+00  1.060008191197E+00
  1.023766553876E+00  9.886922071644E-01  9.547094813906E-01  9.217510944337E-01
  8.897574013296E-01  8.586756874532E-01  8.284595042957E-01  7.990680470230E-01
  7.704655727019E-01  7.426208579928E-01  7.155066950085E-01  6.890994239712E-01
  6.633785012429E-01  6.383261012677E-01  6.139267509508E-01  5.901669949039E-01
  5.670350901951E-01  5.445207289517E-01  5.226147874001E-01  5.013090998520E-01
  4.805962561801E-01  4.604694213577E-01  4.409221756594E-01  4.219483741605E-01
  4.035420242034E-01  3.856971795413E-01  3.684078499104E-01  3.516679248237E-01
  3.354711104277E-01  3.198108783059E-01  3.046804251723E-01  2.900726423962E-01
  2.759800944698E-01  2.623950054221E-01  2.493092523476E-01  2.367143652234E-01
  2.246015322463E-01  2.129616099674E-01  2.017851375541E-01  1.910623545524E-01
  1.807832215726E-01  1.709374433653E-01  1.615144937969E-01  1.525036422792E-01
  1.438939812468E-01  1.356744543143E-01  1.278338847850E-01  1.203610042166E-01
  1.132444807824E-01  1.064729472006E-01  1.000350280292E-01  9.391936616389E-02
  8.811464837349E-02  8.260962977003E-02  7.739315710069E-02  7.245419078239E-02
  6.778182561445E-02  6.336531012092E-02  5.919406448857E-02  5.525769707947E-02
  5.154601950809E-02  4.804906028356E-02  4.475707702624E-02  4.166056727619E-02
  3.875027791777E-02  3.601721325147E-02  3.345264174923E-02  3.104810153475E-02
  2.879540463488E-02  2.668664005179E-02  2.471417570959E-02  2.287065933162E-02
  2.114901830777E-02  1.954245861288E-02  1.804446283947E-02  1.664878740897E-02
  1.534945902669E-02  1.414077044626E-02  1.301727560895E-02  1.197378422309E-02
  1.100535584784E-02  1.010729354406E-02  9.275137153752E-03  8.504656267071E-03
  7.791842933875E-03  7.132904174020E-03  6.524254337779E-03  5.962507364717E-03
  5.444468986146E-03  4.967128912982E-03  4.527653047450E-03  4.123375753665E-03
  3.751792218720E-03  3.410550932540E-03  3.097446311460E-03  2.810411487247E-03
  2.547511280213E-03  2.306935372056E-03  2.086991691251E-03  1.886100021125E-03
  1.702785838273E-03  1.535674386599E-03  1.383484990178E-03  1.245025606161E-03
  1.119187617183E-03  1.004940861214E-03  9.013288953895E-04  8.074644892355E-04
  7.225253416893E-04  6.457500155430E-04  5.764340823040E-04  5.139264700078E-04
  4.576260062004E-04  4.069781481253E-04  3.614718920878E-04  3.206368540024E-04
  2.840405132510E-04  2.512856121691E-04  2.220077037171E-04  1.958728401760E-04
  1.725753960072E-04  1.518360183378E-04  1.333996988519E-04  1.170339611825E-04
  1.025271582072E-04  8.968687393503E-05  7.833842494330E-05  6.832345657189E-05
  5.949862930068E-05  5.173439096555E-05  4.491383059661E-05  3.893160991130E-05
  3.369296856714E-05  2.911279944748E-05  2.511479038220E-05  2.163062880450E-05
  1.859926595584E-05  1.596623735254E-05  1.368303632445E-05  1.170653753192E-05
  9.998467462471E-06  8.524919004206E-06  7.255907290150E-06  6.164964106080E-06
  5.228768255256E-06  4.426809375990E-06  3.741082812579E-06  3.155813246351E-06
  2.657204901039E-06  2.233216245074E-06  1.873357222041E-06  1.568507149067E-06
  1.310751530630E-06  1.093236141755E-06  9.100368392550E-07  7.560436620219E-07
  6.268578810325E-07  5.187007562516E-07  4.283328506322E-07  3.529828406811E-07
  2.902848483129E-07  2.382233997863E-07  1.950851942760E-07  1.594169370090E-07
  1.299885598479E-07  1.057612157611E-07  8.585949282367E-08  6.954734833372E-08
  5.620731442124E-08  4.532257331201E-08  3.646154334369E-08  2.926465609549E-08
  2.343304077228E-08  1.871886447547E-08  1.491710639788E-08  1.185857050187E-08
  9.403965080897E-09  7.438898965935E-09  5.869663213759E-09  4.619684093778E-09
  3.626548255075E-09  2.839514278553E-09  2.217436564266E-09  1.727037825019E-09
  1.341475498059E-09  1.039155280837E-09  8.027518679628E-10  6.184029282728E-10
  4.750475173934E-10  3.638845668914E-10  2.779309119669E-10  2.116615929824E-10
  1.607179614966E-10  1.216715010305E-10  9.183329189925E-11  6.910075717133E-11
  5.183476651899E-11  3.876138451098E-11  2.889356316589E-11  2.146892445810E-11
  1.590048226536E-11  1.173773687506E-11  8.636057520307E-12  6.332665718360E-12
  4.627858316066E-12  3.370375935536E-12  2.446040001257E-12  1.768958206429E-12
  1.274741293598E-12  9.152893827151E-13  6.547987933224E-13  4.667145513000E-13
  3.314130060338E-13  2.344460700213E-13  1.652158817194E-13  1.159781109186E-13
  8.109524667696E-14  5.647930899360E-14  3.917754150280E-14  2.706560750195E-14
  1.862129508359E-14  1.275827423869E-14  8.704465506566E-15  5.913414646807E-15
  3.999983898067E-15  2.693885979641E-15  1.806251940364E-15  1.205680968234E-15
  8.011576326639E-16  5.299211723387E-16  3.488897725587E-16  2.286254189921E-16
  1.491061043670E-16  9.677784856445E-17  6.250874519042E-17  4.017576364641E-17
  2.569330109210E-17  1.634862891073E-17  1.034954580874E-17  6.517964276379E-18
  4.083424319492E-18  2.544651025543E-18  0.000000000000E+00  0.000000000000E+00
  0.000000000000E+00  0.000000000000E+00  0.000000000000E+00  0.000000000000E+00
  0.000000000000E+00  0.000000000000E+00  0.000000000000E+00  0.000000000000E+00
  0.000000000000E+00  0.000000000000E+00  0.000000000000E+00  0.000000000000E+00
  0.000000000000E+00  0.000000000000E+00  0.000000000000E+00  0.000000000000E+00
  0.000000000000E+00  0.000000000000E+00  0.000000000000E+00  0.000000000000E+00
  0.000000000000E+00  0.000000000000E+00  0.000000000000E+00  0.000000000000E+00
  0.000000000000E+00  0.000000000000E+00  0.000000000000E+00  0.000000000000E+00
  0.000000000000E+00
</data>
</radfunc>
</valence-charge>
<pseudocore-charge matching-radius="0.320762806835"
 number-of-continuous-derivatives="4">
<annotation model-charge-form="Teter function with specified parameters" />
<radfunc>
<data npts="290">
  2.250346802009E+02  2.249563419272E+02  2.247222868275E+02  2.243322170698E+02
  2.237907468596E+02  2.230802919783E+02  2.221773259975E+02  2.211467845817E+02
  2.199924171117E+02  2.186520627440E+02  2.171487429858E+02  2.155237069451E+02
  2.135721759724E+02  2.115484464580E+02  2.091800387021E+02  2.068350395359E+02
  2.041597400590E+02  2.016484191691E+02  1.988535797339E+02  1.957480988555E+02
  1.923035654352E+02  1.892841030644E+02  1.860135613407E+02  1.824766349421E+02
  1.786582602673E+02  1.745439236709E+02  1.701200344197E+02  1.665915546853E+02
  1.628775507037E+02  1.589742718425E+02  1.548788584146E+02  1.505895111567E+02
  1.461056745916E+02  1.414282330853E+02  1.365597176937E+02  1.315045210305E+02
  1.262691163755E+02  1.208622760696E+02  1.171679362108E+02  1.134063655827E+02
  1.095821269296E+02  1.057003625319E+02  1.017668116438E+02  9.778782380324E+01
  9.377036722049E+01  8.972203139824E+01  8.565102310312E+01  8.156615477975E+01
  7.747682449154E+01  7.339298648551E+01  6.932511151628E+01  6.528413613412E+01
  6.128140024534E+01  5.732857239794E+01  5.343756243364E+01  4.962042138379E+01
  4.588922877458E+01  4.225596784620E+01  3.873238958215E+01  3.532986688505E+01
  3.205924071774E+01  2.893066054428E+01  2.595342194038E+01  2.313580477919E+01
  2.048491591269E+01  1.800654073371E+01  1.570500838685E+01  1.462148390107E+01
  1.358307566172E+01  1.258986743230E+01  1.164183471045E+01  1.073884350008E+01
  9.880649644653E+00  9.066898753031E+00  8.297126745941E+00  7.570761046974E+00
  6.887122437540E+00  6.245427589928E+00  5.644792286877E+00  5.084235329615E+00
  4.562683129667E+00  4.078974972136E+00  3.631868930659E+00  3.220048406048E+00
  2.842129252410E+00  2.496667446099E+00  2.182167244471E+00  1.897089773148E+00
  1.639861972497E+00  1.408885826513E+00  1.202547790366E+00  1.019228326705E+00
  8.573114556559E-01  7.151942193638E-01  5.912959591660E-01  4.840673021881E-01
  3.919987544149E-01  3.136287992917E-01  2.475514047056E-01  1.924228468633E-01
  1.469677671385E-01  1.099843873880E-01  8.034882047176E-02  5.701842563285E-02
  3.903417284252E-02  2.552199595437E-02  1.569313128058E-02  8.843455662171E-03
  4.351855888959E-03  1.677679015437E-03  3.573302740148E-04  1.014410211911E-07
  2.833271924815E-04  9.469797323149E-04  1.787822346403E-03  2.653250135456E-03
  3.434950671694E-03  4.062518451326E-03  4.497154613911E-03  4.725577418250E-03
  4.754259471109E-03  4.604094898336E-03  4.305583858634E-03  3.894603489149E-03
  3.408814121159E-03  2.884728100783E-03  2.355446564527E-03  1.849047878191E-03
  1.387590996017E-03  9.866785628666E-04  6.555089338799E-04  3.973340898782E-04
  2.102322068465E-04  8.809973975464E-05  2.176844273550E-05  1.576802186496E-07
  1.138136379978E-05  4.374132663245E-05  8.655416440880E-05  1.307756040986E-04
  1.694042652710E-04  1.976641559173E-04  2.129813137028E-04  2.147836748468E-04
  2.041637021337E-04  1.834499379314E-04  1.557361576428E-04  1.244151891684E-04
  9.275906333861E-05  6.357860150317E-05  3.898471908916E-05  2.026170150413E-05
  7.850654972420E-06  1.430396196600E-06  7.423933546735E-08  2.455253270337E-06
  7.070067447112E-06  1.245230217167E-05  1.735090565389E-05  2.085545484092E-05
  2.245889347361E-05  2.205713429240E-05  1.989329521405E-05  1.646102622863E-05
  1.238560922694E-05  8.302821544514E-06  4.753905846179E-06  2.110768135070E-06
  5.394863210007E-07  3.366522945747E-09  0.000000000000E+00  0.000000000000E+00
  0.000000000000E+00  0.000000000000E+00  0.000000000000E+00  0.000000000000E+00
  0.000000000000E+00  0.000000000000E+00  0.000000000000E+00  0.000000000000E+00
  0.000000000000E+00  0.000000000000E+00  0.000000000000E+00  0.000000000000E+00
  0.000000000000E+00  0.000000000000E+00  0.000000000000E+00  0.000000000000E+00
  0.000000000000E+00  0.000000000000E+00  0.000000000000E+00  0.000000000000E+00
  0.000000000000E+00  0.000000000000E+00  0.000000000000E+00  0.000000000000E+00
  0.000000000000E+00  0.000000000000E+00  0.000000000000E+00  0.000000000000E+00
  0.000000000000E+00  0.000000000000E+00  0.000000000000E+00  0.000000000000E+00
  0.000000000000E+00  0.000000000000E+00  0.000000000000E+00  0.000000000000E+00
  0.000000000000E+00  0.000000000000E+00  0.000000000000E+00  0.000000000000E+00
  0.000000000000E+00  0.000000000000E+00  0.000000000000E+00  0.000000000000E+00
  0.000000000000E+00  0.000000000000E+00  0.000000000000E+00  0.000000000000E+00
  0.000000000000E+00  0.000000000000E+00  0.000000000000E+00  0.000000000000E+00
  0.000000000000E+00  0.000000000000E+00  0.000000000000E+00  0.000000000000E+00
  0.000000000000E+00  0.000000000000E+00  0.000000000000E+00  0.000000000000E+00
  0.000000000000E+00  0.000000000000E+00  0.000000000000E+00  0.000000000000E+00
  0.000000000000E+00  0.000000000000E+00  0.000000000000E+00  0.000000000000E+00
  0.000000000000E+00  0.000000000000E+00  0.000000000000E+00  0.000000000000E+00
  0.000000000000E+00  0.000000000000E+00  0.000000000000E+00  0.000000000000E+00
  0.000000000000E+00  0.000000000000E+00  0.000000000000E+00  0.000000000000E+00
  0.000000000000E+00  0.000000000000E+00  0.000000000000E+00  0.000000000000E+00
  0.000000000000E+00  0.000000000000E+00  0.000000000000E+00  0.000000000000E+00
  0.000000000000E+00  0.000000000000E+00  0.000000000000E+00  0.000000000000E+00
  0.000000000000E+00  0.000000000000E+00  0.000000000000E+00  0.000000000000E+00
  0.000000000000E+00  0.000000000000E+00  0.000000000000E+00  0.000000000000E+00
  0.000000000000E+00  0.000000000000E+00  0.000000000000E+00  0.000000000000E+00
  0.000000000000E+00  0.000000000000E+00  0.000000000000E+00  0.000000000000E+00
  0.000000000000E+00  0.000000000000E+00  0.000000000000E+00  0.000000000000E+00
  0.000000000000E+00  0.000000000000E+00  0.000000000000E+00  0.000000000000E+00
  0.000000000000E+00  0.000000000000E+00
</data>
</radfunc>
</pseudocore-charge>
<semilocal-potentials set="scalar_relativistic">
<slps n="3" l="s" rc="1.20564900768" eref="-6.99360315499">
<radfunc>
<data npts="290">
 -4.186228072410E+01 -4.186197788651E+01 -4.186107354248E+01 -4.185956795676E+01
 -4.185748117346E+01 -4.185474854144E+01 -4.185128388728E+01 -4.184734057512E+01
 -4.184293616599E+01 -4.183783748764E+01 -4.183213636459E+01 -4.182599161233E+01
 -4.181863263021E+01 -4.181101946479E+01 -4.180212526825E+01 -4.179332702611E+01
 -4.178328810109E+01 -4.177385222625E+01 -4.176332415442E+01 -4.175157597999E+01
 -4.173846109525E+01 -4.172687202762E+01 -4.171420035031E+01 -4.170033208163E+01
 -4.168513621099E+01 -4.166846115333E+01 -4.165013043184E+01 -4.163517287987E+01
 -4.161906826393E+01 -4.160170303590E+01 -4.158294836156E+01 -4.156265780562E+01
 -4.154066468351E+01 -4.151677903568E+01 -4.149078417492E+01 -4.146243275156E+01
 -4.143144227597E+01 -4.139749003370E+01 -4.137302979000E+01 -4.134696850780E+01
 -4.131917298614E+01 -4.128949772330E+01 -4.125778383763E+01 -4.122385792277E+01
 -4.118753084578E+01 -4.114859650305E+01 -4.110683055790E+01 -4.106198919594E+01
 -4.101380795052E+01 -4.096200067055E+01 -4.090625872776E+01 -4.084625058743E+01
 -4.078162189451E+01 -4.071199624923E+01 -4.063697685429E+01 -4.055614919727E+01
 -4.046908487070E+01 -4.037534651224E+01 -4.027449365967E+01 -4.016608906601E+01
 -4.004970474307E+01 -3.992492677005E+01 -3.979135781868E+01 -3.964861651738E+01
 -3.949633326373E+01 -3.933414284911E+01 -3.916167509305E+01 -3.907146779524E+01
 -3.897854530651E+01 -3.888285599852E+01 -3.878434654156E+01 -3.868296185819E+01
 -3.857864514060E+01 -3.847133792710E+01 -3.836098023070E+01 -3.824751071150E+01
 -3.813086688428E+01 -3.801098535372E+01 -3.788780207156E+01 -3.776125261255E+01
 -3.763127246831E+01 -3.749779736086E+01 -3.736076357892E+01 -3.722010834072E+01
 -3.707577018674E+01 -3.692768940402E+01 -3.677580848070E+01 -3.662007258629E+01
 -3.646043006862E+01 -3.629683295461E+01 -3.612923743831E+01 -3.595760433697E+01
 -3.578189949510E+01 -3.560209411666E+01 -3.541816500866E+01 -3.523009472354E+01
 -3.503787159385E+01 -3.484148965977E+01 -3.464094849741E+01 -3.443625296269E+01
 -3.422741287161E+01 -3.401444264192E+01 -3.379736092306E+01 -3.357619024158E+01
 -3.335095668658E+01 -3.312168965610E+01 -3.288842167999E+01 -3.265118832870E+01
 -3.241002821174E+01 -3.216498306331E+01 -3.191609790806E+01 -3.166342129566E+01
 -3.140700559026E+01 -3.114690729876E+01 -3.088318742160E+01 -3.061591180918E+01
 -3.034515150832E+01 -3.007098308383E+01 -2.979348890221E+01 -2.951275736594E+01
 -2.922888308891E+01 -2.894196700585E+01 -2.865211641123E+01 -2.835944492630E+01
 -2.806407239734E+01 -2.776612473332E+01 -2.746573369834E+01 -2.716303668327E+01
 -2.685817649226E+01 -2.655130119390E+01 -2.624256410306E+01 -2.593212397826E+01
 -2.562014553874E+01 -2.530680042486E+01 -2.499226874194E+01 -2.467674133847E+01
 -2.436042297274E+01 -2.404353651317E+01 -2.372632829752E+01 -2.340907474290E+01
 -2.309209025749E+01 -2.277573645875E+01 -2.246043266181E+01 -2.214666757100E+01
 -2.183501209567E+01 -2.152613321934E+01 -2.122080887706E+01 -2.091994383035E+01
 -2.062458655948E+01 -2.033594720661E+01 -2.005541659588E+01 -1.978458633941E+01