<?xml version="1.0" encoding="UTF-8" ?>
<psml version="1.1" energy_unit="hartree" length_unit="bohr"
 uuid="09d3d600-be6d-11e7-63df-431a6e577ce2"
 xmlns="http://esl.cecam.org/PSML/ns/1.1">
<provenance creator="ONCVPSP-3.3.0+psml-3.3.0-73 (scalar-relativistic)"
 date="2017-10-31">
<annotation action="semilocal-pseudopotential-generation"
 action-cont="projectors-generation" />
<input-file name="oncvpsp-input">
<![CDATA[# atsym z nc nv iexc psfile
Ta 73 9 5 4 upf
# n l f
1 0 2.0
2 0 2.0
2 1 6.0
3 0 2.0
3 1 6.0
3 2 10.0
4 0 2.0
4 1 6.0
4 2 10.0
4 3 14.0
5 0 2.0
5 1 6.0
5 2 3.0
6 0 2.0
# lmax
3
# l rc ep ncon nbas qcut
0 2.30 0.0 4 7 5.2
1 1.85 0.0 4 7 6.6
2 2.05 0.0 4 9 6.6
3 1.6 0.0 4 8 11.4
# lloc lpopt rc5 dvloc0
4 5 1.6 0.0
# l nproj debl
0 2 2.0
1 2 1.5
2 2 1.8
3 2 1.0
# icmod fcfact
3 5 1.36
# epsh1 epsh2 depsh
-12.0 12.0 0.02
# rlmax drl
6.0 0.01
 0
]]>
</input-file>
</provenance>
<pseudo-atom-spec atomic-label="Ta" atomic-number="73" z-pseudo="27"
 flavor="Hamann&apos;s oncvpsp" relativity="scalar" spin-dft="no"
 core-corrections="yes">
<annotation pseudo-energy="-301.877401874" />
<exchange-correlation>
<annotation oncvpsp-xc-code="4" oncvpsp-xc-type="GGA -- Perdew-Burke-Ernzerhof" />
<libxc-info number-of-functionals="2">
<functional name="Perdew, Burke &amp; Ernzerhof (GGA)" type="exchange" id="101" />
<functional name="Perdew, Burke &amp; Ernzerhof (GGA)" type="correlation"
 id="130" />
</libxc-info>
</exchange-correlation>
<valence-configuration total-valence-charge="27">
<shell n="4" l="f" occupation="14" />
<shell n="5" l="s" occupation="2" />
<shell n="5" l="p" occupation="6" />
<shell n="5" l="d" occupation="3" />
<shell n="6" l="s" occupation="2" />
</valence-configuration>
</pseudo-atom-spec>
<grid npts="458">
<annotation type="sampled from oncvpsp log grid"
 recipe="r(i:1..N) = r1*exp(a*(i-1)) + r=0; resampled"
 recipe-cont="r1: scale; a: step" scale="0.684931506849E-05"
 step="0.119285708653E-01" delta="0.500000000000E-02" rmax="44.4652856571" />
<grid-data>
  0.000000000000E+00  5.017305651402E-03  1.002167429467E-02  1.503410950261E-02
  2.025771802601E-02  2.541091241664E-02  3.075448503181E-02  3.591328416708E-02
  4.094876041219E-02  4.613663167149E-02  5.136537901594E-02  5.650860641260E-02
  6.216682636963E-02  6.758063756162E-02  7.259477435141E-02  7.798093438119E-02
  8.376671986784E-02  8.891480333121E-02  9.437927453650E-02  1.001795778466E-01
  1.063363526242E-01  1.115331093606E-01  1.169838364460E-01  1.227009456482E-01
  1.286974553096E-01  1.349870199913E-01  1.415839615656E-01  1.467423931104E-01
  1.520887655471E-01  1.576299262629E-01  1.633729721210E-01  1.693252585498E-01
  1.754944089633E-01  1.818883245250E-01  1.885151942671E-01  1.953835055789E-01
  2.025020550769E-01  2.098799598710E-01  2.149473016221E-01  2.201369892725E-01
  2.254519767415E-01  2.308952892679E-01  2.364700251320E-01  2.421793574188E-01
  2.480265358243E-01  2.540148885053E-01  2.601478239733E-01  2.664288330354E-01
  2.728614907802E-01  2.794494586136E-01  2.861964863423E-01  2.931064143086E-01
  3.001831755756E-01  3.074307981667E-01  3.148534073577E-01  3.224552280249E-01
  3.302405870504E-01  3.382139157841E-01  3.463797525668E-01  3.547427453128E-01
  3.633076541556E-01  3.720793541575E-01  3.810628380843E-01  3.902632192470E-01
  3.996857344125E-01  4.093357467842E-01  4.192187490545E-01  4.242493740432E-01
  4.293403665317E-01  4.344924509301E-01  4.397063603412E-01  4.449828366653E-01
  4.503226307053E-01  4.557265022738E-01  4.611952203011E-01  4.667295629447E-01
  4.723303177000E-01  4.779982815124E-01  4.837342608906E-01  4.895390720212E-01
  4.954135408855E-01  5.013585033761E-01  5.073748054166E-01  5.134633030816E-01
  5.196248627186E-01  5.258603610712E-01  5.321706854041E-01  5.385567336290E-01
  5.450194144325E-01  5.515596474057E-01  5.581783631746E-01  5.648765035327E-01
  5.716550215750E-01  5.785148818339E-01  5.854570604160E-01  5.924825451409E-01
  5.995923356826E-01  6.067874437108E-01  6.140688930354E-01  6.214377197518E-01
  6.288949723888E-01  6.364417120575E-01  6.440790126022E-01  6.518079607534E-01
  6.596296562824E-01  6.675452121578E-01  6.755557547037E-01  6.836624237601E-01
  6.918663728453E-01  7.001687693194E-01  7.085707945512E-01  7.170736440859E-01
  7.256785278149E-01  7.343866701487E-01  7.431993101905E-01  7.521177019127E-01
  7.611431143357E-01  7.702768317077E-01  7.795201536882E-01  7.888743955325E-01
  7.983408882789E-01  8.079209789382E-01  8.176160306855E-01  8.274274230537E-01
  8.373565521303E-01  8.474048307559E-01  8.575736887250E-01  8.678645729897E-01
  8.782789478655E-01  8.888182952399E-01  8.994841147828E-01  9.102779241602E-01
  9.212012592501E-01  9.322556743611E-01  9.434427424535E-01  9.547640553629E-01
  9.662212240273E-01  9.778158787156E-01  9.895496692602E-01  1.001424265291E+00
  1.013441356475E+00  1.025602652752E+00  1.037909884586E+00  1.050364803201E+00
  1.062969180839E+00  1.075724811009E+00  1.088633508741E+00  1.101697110846E+00
  1.114917476176E+00  1.128296485890E+00  1.141836043721E+00  1.155538076246E+00
  1.169404533161E+00  1.183437387559E+00  1.197638636209E+00  1.212010299844E+00
  1.226554423442E+00  1.241273076523E+00  1.256168353441E+00  1.271242373683E+00
  1.286497282167E+00  1.301935249553E+00  1.317558472548E+00  1.333369174218E+00
  1.349369604309E+00  1.365562039560E+00  1.381948784035E+00  1.398532169444E+00
  1.415314555477E+00  1.432298330143E+00  1.449485910104E+00  1.466879741026E+00
  1.484482297918E+00  1.502296085493E+00  1.520323638519E+00  1.538567522181E+00
  1.557030332447E+00  1.575714696437E+00  1.594623272794E+00  1.613758752067E+00
  1.633123857092E+00  1.652721343377E+00  1.672553999498E+00  1.692624647492E+00
  1.712936143262E+00  1.733491376981E+00  1.754293273505E+00  1.775344792787E+00
  1.796648930300E+00  1.818208717464E+00  1.840027222073E+00  1.862107548738E+00
  1.884452839323E+00  1.907066273395E+00  1.929951068676E+00  1.953110481500E+00
  1.976547807278E+00  2.000266380965E+00  2.024269577537E+00  2.048560812467E+00
  2.073143542217E+00  2.098021264723E+00  2.123197519900E+00  2.148675890139E+00
  2.174460000820E+00  2.200553520830E+00  2.226960163080E+00  2.253683685037E+00
  2.280727889258E+00  2.308096623929E+00  2.335793783416E+00  2.363823308817E+00
  2.392189188523E+00  2.420895458785E+00  2.449946204290E+00  2.479345558742E+00
  2.509097705447E+00  2.539206877912E+00  2.569677360447E+00  2.600513488772E+00
  2.631719650638E+00  2.663300286445E+00  2.695259889883E+00  2.727603008561E+00
  2.760334244664E+00  2.793458255600E+00  2.826979754667E+00  2.860903511723E+00
  2.895234353864E+00  2.929977166110E+00  2.965136892104E+00  3.000718534809E+00
  3.036727157226E+00  3.073167883113E+00  3.110045897711E+00  3.147366448483E+00
  3.185134845865E+00  3.223356464015E+00  3.262036741583E+00  3.301181182482E+00
  3.340795356672E+00  3.380884900952E+00  3.421455519764E+00  3.462512986001E+00
  3.504063141833E+00  3.546111899535E+00  3.588665242329E+00  3.631729225237E+00
  3.675309975940E+00  3.719413695651E+00  3.764046659999E+00  3.809215219919E+00
  3.854925802558E+00  3.901184912189E+00  3.947999131135E+00  3.995375120709E+00
  4.043319622157E+00  4.091839457623E+00  4.140941531115E+00  4.190632829488E+00
  4.240920423442E+00  4.291811468523E+00  4.343313206145E+00  4.395432964619E+00
  4.448178160195E+00  4.501556298117E+00  4.555574973694E+00  4.610241873379E+00
  4.665564775859E+00  4.721551553170E+00  4.778210171808E+00  4.835548693869E+00
  4.893575278196E+00  4.952298181534E+00  5.011725759713E+00  5.071866468829E+00
  5.132728866455E+00  5.194321612852E+00  5.256653472207E+00  5.319733313873E+00
  5.383570113640E+00  5.448172955003E+00  5.513551030463E+00  5.579713642829E+00
  5.646670206543E+00  5.714430249021E+00  5.783003412010E+00  5.852399452954E+00
  5.922628246389E+00  5.993699785346E+00  6.065624182770E+00  6.138411672963E+00
  6.212072613039E+00  6.286617484395E+00  6.362056894208E+00  6.438401576939E+00
  6.515662395862E+00  6.593850344612E+00  6.672976548748E+00  6.753052267332E+00
  6.834088894540E+00  6.916097961275E+00  6.999091136810E+00  7.083080230452E+00
  7.168077193217E+00  7.254094119536E+00  7.341143248970E+00  7.429236967958E+00
  7.518387811574E+00  7.608608465312E+00  7.699911766896E+00  7.792310708099E+00
  7.885818436596E+00  7.980448257835E+00  8.076213636929E+00  8.173128200572E+00
  8.271205738979E+00  8.370460207847E+00  8.470905730341E+00  8.572556599105E+00
  8.675427278295E+00  8.779532405634E+00  8.884886794502E+00  8.991505436036E+00
  9.099403501268E+00  9.208596343283E+00  9.319099499403E+00  9.430928693396E+00
  9.544099837716E+00  9.658629035769E+00  9.774532584198E+00  9.891826975209E+00
  1.001052889891E+01  1.013065524570E+01  1.025222310865E+01  1.037524978595E+01
  1.049975278338E+01  1.062574981678E+01  1.075325881458E+01  1.088229792036E+01
  1.101288549540E+01  1.114504012135E+01  1.127878060280E+01  1.141412597004E+01
  1.155109548168E+01  1.168970862746E+01  1.182998513099E+01  1.197194495256E+01
  1.211560829199E+01  1.226099559149E+01  1.240812753859E+01  1.255702506906E+01
  1.270770936988E+01  1.286020188232E+01  1.301452430491E+01  1.317069859657E+01
  1.332874697973E+01  1.348869194348E+01  1.365055624681E+01  1.381436292177E+01
  1.398013527683E+01  1.414789690015E+01  1.431767166295E+01  1.448948372291E+01
  1.466335752758E+01  1.483931781791E+01  1.501738963173E+01  1.519759830731E+01
  1.537996948700E+01  1.556452912084E+01  1.575130347029E+01  1.594031911194E+01
  1.613160294128E+01  1.632518217657E+01  1.652108436269E+01  1.671933737505E+01
  1.691996942355E+01  1.712300905663E+01  1.732848516531E+01  1.753642698729E+01
  1.774686411114E+01  1.795982648047E+01  1.817534439824E+01  1.839344853102E+01
  1.861416991339E+01  1.883753995235E+01  1.906359043178E+01  1.929235351696E+01
  1.952386175916E+01  1.975814810027E+01  1.999524587748E+01  2.023518882801E+01
  2.047801109394E+01  2.072374722707E+01  2.097243219379E+01  2.122410138012E+01
  2.147879059668E+01  2.173653608384E+01  2.199737451685E+01  2.226134301105E+01
  2.252847912718E+01  2.279882087671E+01  2.307240672723E+01  2.334927560796E+01
  2.362946691525E+01  2.391302051823E+01  2.419997676445E+01  2.449037648563E+01
  2.478426100345E+01  2.508167213550E+01  2.538265220112E+01  2.568724402754E+01
  2.599549095587E+01  2.630743684734E+01  2.662312608950E+01  2.694260360258E+01
  2.726591484581E+01  2.759310582396E+01  2.792422309385E+01  2.825931377097E+01
  2.859842553622E+01  2.894160664266E+01  2.928890592237E+01  2.964037279344E+01
  2.999605726696E+01  3.035600995416E+01  3.072028207361E+01  3.108892545850E+01
  3.146199256400E+01  3.183953647477E+01  3.222161091246E+01  3.260827024341E+01
  3.299956948633E+01  3.339556432017E+01  3.379631109201E+01  3.420186682512E+01
  3.461228922702E+01  3.502763669774E+01  3.544796833812E+01  3.587334395817E+01
  3.630382408567E+01  3.673946997470E+01  3.718034361440E+01  3.762650773777E+01
  3.807802583062E+01  3.853496214059E+01  3.899738168628E+01  3.946535026651E+01
  3.993893446971E+01  4.041820168335E+01  4.090322010355E+01  4.139405874479E+01
  4.189078744973E+01  4.239347689912E+01  4.290219862191E+01  4.341702500538E+01
  4.393802930544E+01  4.446528565711E+01
</grid-data>
</grid>
<valence-charge total-charge="27" is-unscreening-charge="yes"
 rescaled-to-z-pseudo="no">
<radfunc>
<data npts="458">
  7.288358083345E+00  7.288699118588E+00  7.289718521653E+00  7.291419149619E+00
  7.293914552697E+00  7.297099091994E+00  7.301159625215E+00  7.305813659973E+00
  7.311054858502E+00  7.317181991196E+00  7.324113702781E+00  7.331686480997E+00
  7.340904711078E+00  7.350625644621E+00  7.360449595443E+00  7.371928483884E+00
  7.385396773788E+00  7.398445641811E+00  7.413486604768E+00  7.430917923236E+00
  7.451248883752E+00  7.470037682951E+00  7.491526911362E+00  7.516248131673E+00
  7.544866192472E+00  7.578215865055E+00  7.617348393047E+00  7.651278484517E+00
  7.689885164718E+00  7.733984550575E+00  7.784549370585E+00  7.842738457516E+00
  7.909931181439E+00  7.987767420291E+00  8.078193654217E+00  8.183515720380E+00
  8.306458660860E+00  8.450233917809E+00  8.559494995397E+00  8.680951083700E+00
  8.816013159294E+00  8.966242214231E+00  9.133361400230E+00  9.319268305655E+00
  9.526047142359E+00  9.755980560139E+00  1.001156073797E+01  1.029549932291E+01
  1.061073569921E+01  1.096044297174E+01  1.134803093988E+01  1.177714522113E+01
  1.225166156025E+01  1.277567423146E+01  1.335347731276E+01  1.398953748705E+01
  1.468845691173E+01  1.545492460477E+01  1.629365473159E+01  1.720931015631E+01
  1.820640965773E+01  1.928921732209E+01  2.046161283103E+01  2.172694168520E+01
  2.308784486411E+01  2.454606804335E+01  2.610225129353E+01  2.691691988470E+01
  2.775570118743E+01  2.861826038998E+01  2.950414845780E+01  3.041279410790E+01
  3.134349577935E+01  3.229541366646E+01  3.326756188846E+01  3.425880087775E+01
  3.526783007669E+01  3.629318104073E+01  3.733321105411E+01  3.838609737125E+01
  3.944983220509E+01  4.052221858964E+01  4.160086725057E+01  4.268319462230E+01
  4.376642215429E+01  4.484757705154E+01  4.592349459546E+01  4.699082218998E+01
  4.804602527500E+01  4.908539524355E+01  5.010505949101E+01  5.110099371347E+01
  5.206903655828E+01  5.300490671216E+01  5.390422249098E+01  5.476252397072E+01
  5.557529767041E+01  5.633800376532E+01  5.704610577284E+01  5.769510261341E+01
  5.828056290608E+01  5.879816131170E+01  5.924371668846E+01  5.961323177333E+01
  5.990293405128E+01  6.010931742150E+01  6.022918421806E+01  6.025968709224E+01
  6.019837021653E+01  6.004320922753E+01  5.979264928744E+01  5.944564061463E+01
  5.900167081223E+01  5.846079331370E+01  5.782365126565E+01  5.709149618325E+01
  5.626620074347E+01  5.535026512674E+01  5.434681638013E+01  5.325960035436E+01
  5.209296586350E+01  5.085184082948E+01  4.954170030258E+01  4.816852639234E+01
  4.673876029898E+01  4.525924679985E+01  4.373717171676E+01  4.217999306232E+01
  4.059536673420E+01  3.899106778893E+01  3.737490847681E+01  3.575465435188E+01
  3.413793987873E+01  3.253218503763E+01  3.094451447489E+01  2.938168075314E+01
  2.784999322309E+01  2.635525396141E+01  2.490270209956E+01  2.349696770475E+01
  2.214203617085E+01  2.084122383735E+01  1.959716528503E+01  1.841181246536E+01
  1.728644551587E+01  1.622169480700E+01  1.521757346686E+01  1.427351935242E+01
  1.338844518810E+01  1.256079538766E+01  1.178860792040E+01  1.106957948617E+01
  1.040113222937E+01  9.780480251723E+00  9.204694277025E+00  8.670762971601E+00
  8.175649626702E+00  7.716343151496E+00  7.289902596235E+00  6.893494710371E+00
  6.524424325571E+00  6.180157624492E+00  5.858338600027E+00  5.556799215709E+00
  5.273563938104E+00  5.006849421671E+00  4.755060184634E+00  4.516781123192E+00
  4.290767676446E+00  4.075934383570E+00  3.871342477790E+00  3.676187048849E+00
  3.489784187114E+00  3.311558407400E+00  3.141030546309E+00  2.977806238790E+00
  2.821565010870E+00  2.672049977188E+00  2.529058103777E+00  2.392430987102E+00
  2.262043448553E+00  2.137782625009E+00  2.019525288145E+00  1.907134667381E+00
  1.800463956312E+00  1.699355110196E+00  1.603639661370E+00  1.513139432668E+00
  1.427667437122E+00  1.347028922349E+00  1.271022539912E+00  1.199441618076E+00
  1.132075926075E+00  1.068715085751E+00  1.009152813133E+00  9.531875866733E-01
  9.006232490687E-01  8.512695181597E-01  8.049424068483E-01  7.614645450735E-01
  7.206653987975E-01  6.823813899615E-01  6.464559508844E-01  6.127395582606E-01
  5.810897390479E-01  5.513710245296E-01  5.234548667156E-01  4.972195275592E-01
  4.725499456524E-01  4.493375881154E-01  4.274803164389E-01  4.068823281918E-01
  3.874541071524E-01  3.691121791259E-01  3.517788463661E-01  3.353819284493E-01
  3.198544957839E-01  3.051346028956E-01  2.911650221799E-01  2.778929796874E-01
  2.652698942107E-01  2.532511208370E-01  2.417957000155E-01  2.308661130680E-01
  2.204280449602E-01  2.104501550310E-01  2.009038562685E-01  1.917631036079E-01
  1.830041916253E-01  1.746055618955E-01  1.665476201939E-01  1.588125636313E-01
  1.513842177337E-01  1.442478834075E-01  1.373901936670E-01  1.307989799471E-01
  1.244631477745E-01  1.183725615330E-01  1.125179380228E-01  1.068907484862E-01
  1.014831287545E-01  9.628779714878E-02  9.129797976195E-02  8.650734273844E-02
  8.190993116788E-02  7.750011420845E-02  7.327253606063E-02  6.922207241852E-02
  6.534379203542E-02  6.163292305177E-02  5.808482374634E-02  5.469495738554E-02
  5.145887086054E-02  4.837217681631E-02  4.543053899161E-02  4.262966050263E-02
  3.996527481590E-02  3.743313916767E-02  3.502903019643E-02  3.274874157339E-02
  3.058808339287E-02  2.854288314131E-02  2.660898802511E-02  2.478226846344E-02
  2.305862255398E-02  2.143398132563E-02  1.990431459886E-02  1.846563728264E-02
  1.711401594569E-02  1.584557551064E-02  1.465650593130E-02  1.354306872662E-02
  1.250160325863E-02  1.152853265681E-02  1.062036930641E-02  9.773719833559E-03
  8.985289535134E-03  8.251886216073E-03  7.570423410365E-03  6.937922974883E-03
  6.351517056765E-03  5.808449445261E-03  5.306076327926E-03  4.841866478460E-03
  4.413400909621E-03  4.018372029372E-03  3.654582341921E-03  3.319942737614E-03
  3.012470416900E-03  2.730286493872E-03  2.471613324378E-03  2.234771602445E-03
  2.018177266924E-03  1.820338257971E-03  1.639851160282E-03  1.475397767059E-03
  1.325741595541E-03  1.189724381766E-03  1.066262578790E-03  9.543438802655E-04
  8.530237844319E-04  7.614222279689E-04  6.787202476460E-04  6.041568378109E-04
  5.370256995064E-04  4.766722716209E-04  4.224908014667E-04  3.739214742383E-04
  3.304476830479E-04  2.915934024073E-04  2.569206625804E-04  2.260271286272E-04
  1.985437829891E-04  1.741327104164E-04  1.524849838130E-04  1.333186494065E-04
  1.163768095359E-04  1.014258012532E-04  8.825346885629E-05  7.666752839145E-05
  6.649402208585E-05  5.757586058137E-05  4.977145074709E-05  4.295340674492E-05
  3.700734191524E-05  3.183073893877E-05  2.733189562170E-05  2.342894354640E-05
  2.004893673305E-05  1.712700737250E-05  1.460558561887E-05  1.243368037571E-05
  1.056621797153E-05  8.963435602151E-06  7.590326417494E-06  6.416133149502E-06
  5.413887215385E-06  4.559990284926E-06  3.833835370953E-06  3.217464586710E-06
  2.695260810873E-06  2.253670608511E-06  1.880955872543E-06  1.566971773117E-06
  1.302968730219E-06  1.081416255761E-06  8.958466438801E-07  7.407166207382E-07
  6.112851963169E-07  5.035060895425E-07  4.139332234120E-07  3.396379078942E-07
  2.781364445255E-07  2.273269972959E-07  1.854346792363E-07  1.509639028082E-07
  1.226571346188E-07  9.945928106889E-08  8.048701135014E-08  6.500239781758E-08
  5.239032137214E-08  4.213915129108E-08  3.382426521180E-08  2.709402598598E-08
  2.165787818328E-08  1.727626845531E-08  1.375213109455E-08  1.092371326405E-08
  8.658543851977E-09  6.848376030838E-09  5.404956676321E-09  4.256496109578E-09
  3.344729441806E-09  2.622476374403E-09  2.051619879150E-09  1.601435969758E-09
  1.247216980440E-09  9.691395732608E-10  7.513362714232E-10  5.811358120532E-10
  4.484431657679E-10  3.452348035626E-10  2.651488131643E-10  2.031528735859E-10
  1.552759734940E-10  1.183921812323E-10  9.004680766070E-11  6.831700472693E-11
  5.170026272205E-11  3.902545060282E-11  2.938202379352E-11  2.206383443894E-11
  1.652464751121E-11  1.234301577972E-11  9.194617238345E-12  6.830526908784E-12
  5.060195142890E-12  3.738148516703E-12  2.753627100323E-12  2.022531613551E-12
  1.481182652447E-12  1.081497531104E-12  7.872730639867E-13  5.713287299016E-13
  4.133172168533E-13  2.980517722442E-13  2.142296890025E-13  1.328605284783E-14
  8.945213940679E-15  5.995803827151E-15  4.000763010411E-15  2.657378898104E-15
  1.756934660579E-15  1.156179192419E-15  7.572473119078E-16  4.935927011069E-16
  3.201792322793E-16  2.066739637254E-16  1.327458607977E-16  8.483458369423E-17
  5.394055382958E-17  3.412100869910E-17  2.147165283544E-17  1.344060959420E-17
  8.368640370835E-18  5.182575533954E-18  3.192001344816E-18  1.955143682328E-18
  1.190868026919E-18  7.212548421182E-19  4.343346264412E-19  2.600404272844E-19
  1.547774657160E-19  9.157868618061E-20  5.386044124665E-20  3.148493899797E-20
  1.829201325345E-20  1.056121121244E-20  6.059363374186E-21  3.454366402726E-21
  1.956611605960E-21  1.101037097002E-21  6.154974393401E-22  3.417771083167E-22
  1.885025075024E-22  1.032555259579E-22  5.616885607924E-23  3.034083557837E-23
  1.627316487394E-23  8.665472586057E-24  0.000000000000E+00  0.000000000000E+00
  0.000000000000E+00  0.000000000000E+00  0.000000000000E+00  0.000000000000E+00
  0.000000000000E+00  0.000000000000E+00
</data>
</radfunc>
</valence-charge>
<pseudocore-charge matching-radius="0.636441712057"
 number-of-continuous-derivatives="4">
<annotation model-charge-form="Teter function with specified parameters" />
<radfunc>
<data npts="291">
  3.113763607949E+02  3.113433067460E+02  3.112445048916E+02  3.110796955045E+02
  3.108379245369E+02  3.105295390330E+02  3.101366763819E+02  3.096870494598E+02
  3.091817914305E+02  3.085929808212E+02  3.079298070834E+02  3.072096039754E+02
  3.063400615329E+02  3.054329246622E+02  3.045277499390E+02  3.034863951592E+02
  3.022889250472E+02  3.011555118553E+02  2.998832718271E+02  2.984558786392E+02
  2.968552679615E+02  2.954367311145E+02  2.938834876425E+02  2.921835499952E+02
  2.903240324939E+02  2.882911206275E+02  2.860700483485E+02  2.842713378065E+02
  2.823509673386E+02  2.803016447071E+02  2.781157847321E+02  2.757855214252E+02
  2.733027252638E+02  2.706590264252E+02  2.678458448857E+02  2.648544283703E+02
  2.616758992251E+02  2.583013113590E+02  2.559382443381E+02  2.534814277643E+02
  2.509282548421E+02  2.482761599897E+02  2.455226336318E+02  2.426652384399E+02
  2.397016270898E+02  2.366295616057E+02  2.334469343512E+02  2.301517907199E+02
  2.267423535688E+02  2.232170494234E+02  2.195745364654E+02  2.158137342986E+02
  2.119338554609E+02  2.079344386245E+02  2.038153833963E+02  1.995769865902E+02
  1.952199798049E+02  1.907455680921E+02  1.861554694463E+02  1.814519547932E+02
  1.766378880842E+02  1.717167660401E+02  1.666927570100E+02  1.615707383336E+02
  1.563563315105E+02  1.510559343977E+02  1.456767495679E+02  1.429600885170E+02
  1.402268078768E+02  1.374780438378E+02  1.347149862058E+02  1.319388785595E+02
  1.291510182713E+02  1.263527563833E+02  1.235454973264E+02  1.207306984753E+02
  1.179098695274E+02  1.150845716963E+02  1.122564167101E+02  1.094270656050E+02
  1.065982273046E+02  1.037716569748E+02  1.009491541473E+02  9.813256060156E+01
  9.532375799867E+01  9.252466525948E+01  8.973723568096E+01  8.696345378523E+01
  8.420533189724E+01  8.146490644761E+01  7.874423399913E+01  7.604538699622E+01
  7.337044923872E+01  7.072151108290E+01  6.810066437435E+01  6.550999711968E+01
  6.295158790582E+01  6.042750007827E+01  5.793977569181E+01  5.549042924995E+01
  5.308144125182E+01  5.071475156808E+01  4.839225267029E+01  4.611578274090E+01
  4.388711869404E+01  4.170796914034E+01  3.957996733161E+01  3.750466412458E+01
  3.548352100504E+01  3.351790321718E+01  3.160907304469E+01  2.975818329311E+01
  2.796627102450E+01  2.623425159760E+01  2.456291306800E+01  2.295291100350E+01
  2.140476377098E+01  1.991884835054E+01  1.849539673252E+01  1.713449295161E+01
  1.583607081061E+01  1.459991234366E+01  1.342564706563E+01  1.231275205012E+01
  1.126055287383E+01  1.026822545901E+01  9.334798839437E+00  8.459158867962E+00
  7.640052875166E+00  6.876095280191E+00  6.165774144835E+00  5.507458651868E+00
  4.899407477689E+00  4.339778018234E+00  3.826636415531E+00  3.357968320631E+00
  2.931690317093E+00  2.545661917769E+00  2.197698036761E+00  1.885581828113E+00
  1.607077773448E+00  1.359944892513E+00  1.141949943734E+00  9.508804766107E-01
  7.845575943965E-01  6.408482841138E-01  5.176771718701E-01  4.130375646942E-01
  3.250016459338E-01  2.517296996429E-01  1.914782504078E-01  1.426070186444E-01
  1.035846074650E-01  7.299285556393E-02  4.952981097245E-02  3.201130265568E-02
  1.937111036635E-02  1.065975747310E-02  5.041976108318E-03  1.792918354143E-03
  2.932106802791E-04  2.297081849672E-05  5.549260533425E-04  1.546788890985E-03
  2.733059641328E-03  3.916435079775E-03  4.959007600385E-03  5.773439801286E-03
  6.314295061945E-03  6.569695341892E-03  6.553463284710E-03  6.297887063014E-03
  5.847223746779E-03  5.252030993395E-03  4.564388381883E-03  3.834039724397E-03
  3.105457271774E-03  2.415799038943E-03  1.793702680252E-03  1.258834577025E-03
  8.220920975171E-04  4.863412375374E-04  2.475617245480E-04  9.626758886206E-05
  1.907329796864E-05  2.836218620279E-07  2.339893240906E-05  7.244581201745E-05
  1.330645543492E-04  1.933090605940E-04  2.441393012793E-04  2.796104026166E-04
  2.967840498863E-04  2.954059496067E-04  2.774064780919E-04  2.462896245644E-04
  2.064775741135E-04  1.626748729707E-04  1.193076240604E-04  8.008053274494E-05
  4.767915600983E-05  2.362792692658E-05  8.298048039032E-06  1.044733520008E-06
  4.418821947988E-07  4.575085351756E-06  1.135146153305E-05  1.878719146231E-05
  2.524029671368E-05  2.956618452163E-05  3.118541926845E-05  3.006552100477E-05
  2.662975813963E-05  2.161450460564E-05  1.590174938722E-05  1.035426601912E-05
  5.677843788732E-06  2.328501041845E-06  4.738796727464E-07  0.000000000000E+00
  0.000000000000E+00  0.000000000000E+00  0.000000000000E+00  0.000000000000E+00
  0.000000000000E+00  0.000000000000E+00  0.000000000000E+00  0.000000000000E+00
  0.000000000000E+00  0.000000000000E+00  0.000000000000E+00  0.000000000000E+00
  0.000000000000E+00  0.000000000000E+00  0.000000000000E+00  0.000000000000E+00
  0.000000000000E+00  0.000000000000E+00  0.000000000000E+00  0.000000000000E+00
  0.000000000000E+00  0.000000000000E+00  0.000000000000E+00  0.000000000000E+00
  0.000000000000E+00  0.000000000000E+00  0.000000000000E+00  0.000000000000E+00
  0.000000000000E+00  0.000000000000E+00  0.000000000000E+00  0.000000000000E+00
  0.000000000000E+00  0.000000000000E+00  0.000000000000E+00  0.000000000000E+00
  0.000000000000E+00  0.000000000000E+00  0.000000000000E+00  0.000000000000E+00
  0.000000000000E+00  0.000000000000E+00  0.000000000000E+00  0.000000000000E+00
  0.000000000000E+00  0.000000000000E+00  0.000000000000E+00  0.000000000000E+00
  0.000000000000E+00  0.000000000000E+00  0.000000000000E+00  0.000000000000E+00
  0.000000000000E+00  0.000000000000E+00  0.000000000000E+00  0.000000000000E+00
  0.000000000000E+00  0.000000000000E+00  0.000000000000E+00  0.000000000000E+00
  0.000000000000E+00  0.000000000000E+00  0.000000000000E+00  0.000000000000E+00
  0.000000000000E+00  0.000000000000E+00  0.000000000000E+00  0.000000000000E+00
  0.000000000000E+00  0.000000000000E+00  0.000000000000E+00
</data>
</radfunc>
</pseudocore-charge>
<semilocal-potentials set="scalar_relativistic">
<slps n="5" l="s" rc="2.30809662393" eref="-2.68280201663">
<radfunc>
<data npts="291">
 -2.980508882012E+01 -2.980512993770E+01 -2.980525281325E+01 -2.980545779120E+01
 -2.980575852509E+01 -2.980614218503E+01 -2.980663105072E+01 -2.980719070348E+01
 -2.980781979671E+01 -2.980855318738E+01 -2.980937955119E+01 -2.981027740690E+01
 -2.981136204752E+01 -2.981249430637E+01 -2.981362486829E+01 -2.981492646611E+01
 -2.981642446887E+01 -2.981784361436E+01 -2.981943808202E+01 -2.982122890133E+01
 -2.982323944360E+01 -2.982502340134E+01 -2.982697903269E+01 -2.982912203222E+01
 -2.983146931392E+01 -2.983403903514E+01 -2.983685058946E+01 -2.983913029408E+01
 -2.984156666089E+01 -2.984416905625E+01 -2.984694705977E+01 -2.984991035887E+01
 -2.985306860186E+01 -2.985643119704E+01 -2.986000704197E+01 -2.986380416270E+01
 -2.986782923786E+01 -2.987208697610E+01 -2.987505582291E+01 -2.987812869169E+01
 -2.988130434633E+01 -2.988458043802E+01 -2.988795327528E+01 -2.989141755572E+01
 -2.989496605425E+01 -2.989858926196E+01 -2.990227496967E+01 -2.990600778948E+01
 -2.990976860760E+01 -2.991353396172E+01 -2.991727533603E+01 -2.992095836762E+01
 -2.992454195884E+01 -2.992797729127E+01 -2.993120673924E+01 -2.993416268327E+01
 -2.993676622762E+01 -2.993892583083E+01 -2.994053586365E+01 -2.994147511622E+01
 -2.994160528356E+01 -2.994076946745E+01 -2.993879074069E+01 -2.993547082687E+01
 -2.993058895322E+01 -2.992390093315E+01 -2.991513852799E+01 -2.990988894276E+01
 -2.990400912061E+01 -2.989745867412E+01 -2.989019570750E+01 -2.988217683153E+01
 -2.987335718095E+01 -2.986369043410E+01 -2.985312883326E+01 -2.984162320504E+01
 -2.982912297952E+01 -2.981557620746E+01 -2.980092957464E+01 -2.978512841304E+01
 -2.976811670854E+01 -2.974983710575E+01 -2.973023091049E+01 -2.970923809166E+01
 -2.968679728435E+01 -2.966284579675E+01 -2.963731962439E+01 -2.961015347504E+01
 -2.958128080903E+01 -2.955063389918E+01 -2.951814391567E+01 -2.948374104099E+01
 -2.944735462012E+01 -2.940891335149E+01 -2.936834552365E+01 -2.932557930234E+01
 -2.928054307204E+01 -2.923316583474E+01 -2.918337766747E+01 -2.913111023778E+01
 -2.907629737408E+01 -2.901887568432E+01 -2.895878521318E+01 -2.889597012388E+01
 -2.883037938713E+01 -2.876196745609E+01 -2.869069490393E+01 -2.861652899871E+01
 -2.853944419117E+01 -2.845942249256E+01 -2.837645372401E+01 -2.829053562426E+01
 -2.820167380983E+01 -2.810988158880E+01 -2.801517963685E+01 -2.791759555035E+01
 -2.781716329551E+01 -2.771392257516E+01 -2.760791813375E+01 -2.749919901913E+01
 -2.738781781459E+01 -2.727382984904E+01 -2.715729238721E+01 -2.703826379618E+01
 -2.691680268092E+01 -2.679296697969E+01 -2.666681301203E+01 -2.653839447662E+01
 -2.640776140474E+01 -2.627495908708E+01 -2.614002700635E+01 -2.600299782523E+01
 -2.586389649690E+01 -2.572273958175E+01 -2.557953486590E+01 -2.543428138124E+01
 -2.528696991905E+01 -2.513758410524E+01 -2.498610206259E+01 -2.483249862244E+01
 -2.467674796862E+01 -2.451882650622E+01 -2.435871566122E+01 -2.419640425067E+01
 -2.403189003811E+01 -2.386518012827E+01 -2.369628997417E+01 -2.352524097858E+01