<?xml version="1.0" encoding="UTF-8" ?>
<psml version="1.1" energy_unit="hartree" length_unit="bohr"
 uuid="b6b5fb50-be45-11e7-6943-5afcefdfb0b9"
 xmlns="http://esl.cecam.org/PSML/ns/1.1">
<provenance creator="ONCVPSP-3.3.0+psml-3.3.0-73 (scalar-relativistic)"
 date="2017-10-31">
<annotation action="semilocal-pseudopotential-generation"
 action-cont="projectors-generation" />
<input-file name="oncvpsp-input">
<![CDATA[# atsym z nc nv iexc psfile
Ta 73 10 4 4 upf
# n l f
1 0 2.0
2 0 2.0
2 1 6.0
3 0 2.0
3 1 6.0
3 2 10.0
4 0 2.0
4 1 6.0
4 2 10.0
4 3 14.0
5 0 2.0
5 1 6.0
5 2 3.0
6 0 2.0
# lmax
3
# l rc ep ncon nbas qcut
0 1.7 0.0 4 8 7.0
1 1.7 0.0 4 8 7.4
2 1.7 0.0 4 9 6.6
3 2.25 0.5 4 8 6.8
# lloc lpopt rc5 dvloc0
4 5 1.6 0.0
# l nproj debl
0 2 2.0
1 2 1.5
2 2 1.8
3 2 2.5
# icmod fcfact rcfact
3 5.0 1.36
# epsh1 epsh2 depsh
-12.0 12.0 0.02
# rlmax drl
6.0 0.01
 0
]]>
</input-file>
</provenance>
<pseudo-atom-spec atomic-label="Ta" atomic-number="73" z-pseudo="13"
 flavor="Hamann&apos;s oncvpsp" relativity="scalar" spin-dft="no"
 core-corrections="yes">
<annotation pseudo-energy="-58.7111219384" />
<exchange-correlation>
<annotation oncvpsp-xc-code="4" oncvpsp-xc-type="GGA -- Perdew-Burke-Ernzerhof" />
<libxc-info number-of-functionals="2">
<functional name="Perdew, Burke &amp; Ernzerhof (GGA)" type="exchange" id="101" />
<functional name="Perdew, Burke &amp; Ernzerhof (GGA)" type="correlation"
 id="130" />
</libxc-info>
</exchange-correlation>
<valence-configuration total-valence-charge="13">
<shell n="5" l="s" occupation="2" />
<shell n="5" l="p" occupation="6" />
<shell n="5" l="d" occupation="3" />
<shell n="6" l="s" occupation="2" />
</valence-configuration>
</pseudo-atom-spec>
<grid npts="458">
<annotation type="sampled from oncvpsp log grid"
 recipe="r(i:1..N) = r1*exp(a*(i-1)) + r=0; resampled"
 recipe-cont="r1: scale; a: step" scale="0.684931506849E-05"
 step="0.119285708653E-01" delta="0.500000000000E-02" rmax="44.4652856571" />
<grid-data>
  0.000000000000E+00  5.017305651402E-03  1.002167429467E-02  1.503410950261E-02
  2.025771802601E-02  2.541091241664E-02  3.075448503181E-02  3.591328416708E-02
  4.094876041219E-02  4.613663167149E-02  5.136537901594E-02  5.650860641260E-02
  6.216682636963E-02  6.758063756162E-02  7.259477435141E-02  7.798093438119E-02
  8.376671986784E-02  8.891480333121E-02  9.437927453650E-02  1.001795778466E-01
  1.063363526242E-01  1.115331093606E-01  1.169838364460E-01  1.227009456482E-01
  1.286974553096E-01  1.349870199913E-01  1.415839615656E-01  1.467423931104E-01
  1.520887655471E-01  1.576299262629E-01  1.633729721210E-01  1.693252585498E-01
  1.754944089633E-01  1.818883245250E-01  1.885151942671E-01  1.953835055789E-01
  2.025020550769E-01  2.098799598710E-01  2.149473016221E-01  2.201369892725E-01
  2.254519767415E-01  2.308952892679E-01  2.364700251320E-01  2.421793574188E-01
  2.480265358243E-01  2.540148885053E-01  2.601478239733E-01  2.664288330354E-01
  2.728614907802E-01  2.794494586136E-01  2.861964863423E-01  2.931064143086E-01
  3.001831755756E-01  3.074307981667E-01  3.148534073577E-01  3.224552280249E-01
  3.302405870504E-01  3.382139157841E-01  3.463797525668E-01  3.547427453128E-01
  3.633076541556E-01  3.720793541575E-01  3.810628380843E-01  3.902632192470E-01
  3.996857344125E-01  4.093357467842E-01  4.192187490545E-01  4.242493740432E-01
  4.293403665317E-01  4.344924509301E-01  4.397063603412E-01  4.449828366653E-01
  4.503226307053E-01  4.557265022738E-01  4.611952203011E-01  4.667295629447E-01
  4.723303177000E-01  4.779982815124E-01  4.837342608906E-01  4.895390720212E-01
  4.954135408855E-01  5.013585033761E-01  5.073748054166E-01  5.134633030816E-01
  5.196248627186E-01  5.258603610712E-01  5.321706854041E-01  5.385567336290E-01
  5.450194144325E-01  5.515596474057E-01  5.581783631746E-01  5.648765035327E-01
  5.716550215750E-01  5.785148818339E-01  5.854570604160E-01  5.924825451409E-01
  5.995923356826E-01  6.067874437108E-01  6.140688930354E-01  6.214377197518E-01
  6.288949723888E-01  6.364417120575E-01  6.440790126022E-01  6.518079607534E-01
  6.596296562824E-01  6.675452121578E-01  6.755557547037E-01  6.836624237601E-01
  6.918663728453E-01  7.001687693194E-01  7.085707945512E-01  7.170736440859E-01
  7.256785278149E-01  7.343866701487E-01  7.431993101905E-01  7.521177019127E-01
  7.611431143357E-01  7.702768317077E-01  7.795201536882E-01  7.888743955325E-01
  7.983408882789E-01  8.079209789382E-01  8.176160306855E-01  8.274274230537E-01
  8.373565521303E-01  8.474048307559E-01  8.575736887250E-01  8.678645729897E-01
  8.782789478655E-01  8.888182952399E-01  8.994841147828E-01  9.102779241602E-01
  9.212012592501E-01  9.322556743611E-01  9.434427424535E-01  9.547640553629E-01
  9.662212240273E-01  9.778158787156E-01  9.895496692602E-01  1.001424265291E+00
  1.013441356475E+00  1.025602652752E+00  1.037909884586E+00  1.050364803201E+00
  1.062969180839E+00  1.075724811009E+00  1.088633508741E+00  1.101697110846E+00
  1.114917476176E+00  1.128296485890E+00  1.141836043721E+00  1.155538076246E+00
  1.169404533161E+00  1.183437387559E+00  1.197638636209E+00  1.212010299844E+00
  1.226554423442E+00  1.241273076523E+00  1.256168353441E+00  1.271242373683E+00
  1.286497282167E+00  1.301935249553E+00  1.317558472548E+00  1.333369174218E+00
  1.349369604309E+00  1.365562039560E+00  1.381948784035E+00  1.398532169444E+00
  1.415314555477E+00  1.432298330143E+00  1.449485910104E+00  1.466879741026E+00
  1.484482297918E+00  1.502296085493E+00  1.520323638519E+00  1.538567522181E+00
  1.557030332447E+00  1.575714696437E+00  1.594623272794E+00  1.613758752067E+00
  1.633123857092E+00  1.652721343377E+00  1.672553999498E+00  1.692624647492E+00
  1.712936143262E+00  1.733491376981E+00  1.754293273505E+00  1.775344792787E+00
  1.796648930300E+00  1.818208717464E+00  1.840027222073E+00  1.862107548738E+00
  1.884452839323E+00  1.907066273395E+00  1.929951068676E+00  1.953110481500E+00
  1.976547807278E+00  2.000266380965E+00  2.024269577537E+00  2.048560812467E+00
  2.073143542217E+00  2.098021264723E+00  2.123197519900E+00  2.148675890139E+00
  2.174460000820E+00  2.200553520830E+00  2.226960163080E+00  2.253683685037E+00
  2.280727889258E+00  2.308096623929E+00  2.335793783416E+00  2.363823308817E+00
  2.392189188523E+00  2.420895458785E+00  2.449946204290E+00  2.479345558742E+00
  2.509097705447E+00  2.539206877912E+00  2.569677360447E+00  2.600513488772E+00
  2.631719650638E+00  2.663300286445E+00  2.695259889883E+00  2.727603008561E+00
  2.760334244664E+00  2.793458255600E+00  2.826979754667E+00  2.860903511723E+00
  2.895234353864E+00  2.929977166110E+00  2.965136892104E+00  3.000718534809E+00
  3.036727157226E+00  3.073167883113E+00  3.110045897711E+00  3.147366448483E+00
  3.185134845865E+00  3.223356464015E+00  3.262036741583E+00  3.301181182482E+00
  3.340795356672E+00  3.380884900952E+00  3.421455519764E+00  3.462512986001E+00
  3.504063141833E+00  3.546111899535E+00  3.588665242329E+00  3.631729225237E+00
  3.675309975940E+00  3.719413695651E+00  3.764046659999E+00  3.809215219919E+00
  3.854925802558E+00  3.901184912189E+00  3.947999131135E+00  3.995375120709E+00
  4.043319622157E+00  4.091839457623E+00  4.140941531115E+00  4.190632829488E+00
  4.240920423442E+00  4.291811468523E+00  4.343313206145E+00  4.395432964619E+00
  4.448178160195E+00  4.501556298117E+00  4.555574973694E+00  4.610241873379E+00
  4.665564775859E+00  4.721551553170E+00  4.778210171808E+00  4.835548693869E+00
  4.893575278196E+00  4.952298181534E+00  5.011725759713E+00  5.071866468829E+00
  5.132728866455E+00  5.194321612852E+00  5.256653472207E+00  5.319733313873E+00
  5.383570113640E+00  5.448172955003E+00  5.513551030463E+00  5.579713642829E+00
  5.646670206543E+00  5.714430249021E+00  5.783003412010E+00  5.852399452954E+00
  5.922628246389E+00  5.993699785346E+00  6.065624182770E+00  6.138411672963E+00
  6.212072613039E+00  6.286617484395E+00  6.362056894208E+00  6.438401576939E+00
  6.515662395862E+00  6.593850344612E+00  6.672976548748E+00  6.753052267332E+00
  6.834088894540E+00  6.916097961275E+00  6.999091136810E+00  7.083080230452E+00
  7.168077193217E+00  7.254094119536E+00  7.341143248970E+00  7.429236967958E+00
  7.518387811574E+00  7.608608465312E+00  7.699911766896E+00  7.792310708099E+00
  7.885818436596E+00  7.980448257835E+00  8.076213636929E+00  8.173128200572E+00
  8.271205738979E+00  8.370460207847E+00  8.470905730341E+00  8.572556599105E+00
  8.675427278295E+00  8.779532405634E+00  8.884886794502E+00  8.991505436036E+00
  9.099403501268E+00  9.208596343283E+00  9.319099499403E+00  9.430928693396E+00
  9.544099837716E+00  9.658629035769E+00  9.774532584198E+00  9.891826975209E+00
  1.001052889891E+01  1.013065524570E+01  1.025222310865E+01  1.037524978595E+01
  1.049975278338E+01  1.062574981678E+01  1.075325881458E+01  1.088229792036E+01
  1.101288549540E+01  1.114504012135E+01  1.127878060280E+01  1.141412597004E+01
  1.155109548168E+01  1.168970862746E+01  1.182998513099E+01  1.197194495256E+01
  1.211560829199E+01  1.226099559149E+01  1.240812753859E+01  1.255702506906E+01
  1.270770936988E+01  1.286020188232E+01  1.301452430491E+01  1.317069859657E+01
  1.332874697973E+01  1.348869194348E+01  1.365055624681E+01  1.381436292177E+01
  1.398013527683E+01  1.414789690015E+01  1.431767166295E+01  1.448948372291E+01
  1.466335752758E+01  1.483931781791E+01  1.501738963173E+01  1.519759830731E+01
  1.537996948700E+01  1.556452912084E+01  1.575130347029E+01  1.594031911194E+01
  1.613160294128E+01  1.632518217657E+01  1.652108436269E+01  1.671933737505E+01
  1.691996942355E+01  1.712300905663E+01  1.732848516531E+01  1.753642698729E+01
  1.774686411114E+01  1.795982648047E+01  1.817534439824E+01  1.839344853102E+01
  1.861416991339E+01  1.883753995235E+01  1.906359043178E+01  1.929235351696E+01
  1.952386175916E+01  1.975814810027E+01  1.999524587748E+01  2.023518882801E+01
  2.047801109394E+01  2.072374722707E+01  2.097243219379E+01  2.122410138012E+01
  2.147879059668E+01  2.173653608384E+01  2.199737451685E+01  2.226134301105E+01
  2.252847912718E+01  2.279882087671E+01  2.307240672723E+01  2.334927560796E+01
  2.362946691525E+01  2.391302051823E+01  2.419997676445E+01  2.449037648563E+01
  2.478426100345E+01  2.508167213550E+01  2.538265220112E+01  2.568724402754E+01
  2.599549095587E+01  2.630743684734E+01  2.662312608950E+01  2.694260360258E+01
  2.726591484581E+01  2.759310582396E+01  2.792422309385E+01  2.825931377097E+01
  2.859842553622E+01  2.894160664266E+01  2.928890592237E+01  2.964037279344E+01
  2.999605726696E+01  3.035600995416E+01  3.072028207361E+01  3.108892545850E+01
  3.146199256400E+01  3.183953647477E+01  3.222161091246E+01  3.260827024341E+01
  3.299956948633E+01  3.339556432017E+01  3.379631109201E+01  3.420186682512E+01
  3.461228922702E+01  3.502763669774E+01  3.544796833812E+01  3.587334395817E+01
  3.630382408567E+01  3.673946997470E+01  3.718034361440E+01  3.762650773777E+01
  3.807802583062E+01  3.853496214059E+01  3.899738168628E+01  3.946535026651E+01
  3.993893446971E+01  4.041820168335E+01  4.090322010355E+01  4.139405874479E+01
  4.189078744973E+01  4.239347689912E+01  4.290219862191E+01  4.341702500538E+01
  4.393802930544E+01  4.446528565711E+01
</grid-data>
</grid>
<valence-charge total-charge="13" is-unscreening-charge="yes"
 rescaled-to-z-pseudo="no">
<radfunc>
<data npts="458">
  1.944638788407E+00  1.945228757684E+00  1.946992467366E+00  1.949935275763E+00
  1.954254110361E+00  1.959766035272E+00  1.966792954273E+00  1.974842196250E+00
  1.983896292475E+00  1.994459591999E+00  2.006372418361E+00  2.019328260819E+00
  2.034996430844E+00  2.051372220246E+00  2.067743430068E+00  2.086615855934E+00
  2.108368293906E+00  2.129007307208E+00  2.152232683496E+00  2.178364279413E+00
  2.207760304490E+00  2.233895310378E+00  2.262601906944E+00  2.294127782021E+00
  2.328743273500E+00  2.366743156911E+00  2.408448502308E+00  2.442368214997E+00
  2.478726481250E+00  2.517691676665E+00  2.559442617648E+00  2.604168993911E+00
  2.652071774846E+00  2.703363577804E+00  2.758268983673E+00  2.817024782096E+00
  2.879880124980E+00  2.947096562722E+00  2.994465081821E+00  3.043977439646E+00
  3.095720062320E+00  3.149781600346E+00  3.206252817062E+00  3.265226447497E+00
  3.326797023644E+00  3.391060661725E+00  3.458114806578E+00  3.528057927755E+00
  3.600989161445E+00  3.677007891697E+00  3.756213263881E+00  3.838703622667E+00
  3.924575866139E+00  4.013924707046E+00  4.106841831477E+00  4.203414944639E+00
  4.303726692754E+00  4.407853449552E+00  4.515863955339E+00  4.627817796236E+00
  4.743763710983E+00  4.863737712687E+00  4.987761013160E+00  5.115837738077E+00
  5.247952422228E+00  5.384067275634E+00  5.524119213473E+00  5.595594173366E+00
  5.668016645621E+00  5.741370161276E+00  5.815636025374E+00  5.890793196297E+00
  5.966818161670E+00  6.043684810966E+00  6.121364305015E+00  6.199824942623E+00
  6.279032024562E+00  6.358947715246E+00  6.439530902431E+00  6.520737055343E+00
  6.602518081691E+00  6.684822184077E+00  6.767593716380E+00  6.850773040741E+00
  6.934296385879E+00  7.018095707496E+00  7.102098551647E+00  7.186227922004E+00
  7.270402152030E+00  7.354534783179E+00  7.438534450305E+00  7.522304775566E+00
  7.605744272203E+00  7.688746259648E+00  7.771198791528E+00  7.852984598212E+00
  7.933981045629E+00  8.014060112190E+00  8.093088385711E+00  8.170927082312E+00
  8.247432089348E+00  8.322454034454E+00  8.395838382881E+00  8.467425565279E+00
  8.537051138148E+00  8.604545979151E+00  8.669736519469E+00  8.732445015340E+00
  8.792489860855E+00  8.849685943985E+00  8.903845047685E+00  8.954776297778E+00
  9.002286659095E+00  9.046181481144E+00  9.086265094294E+00  9.122341457131E+00
  9.154214855316E+00  9.181690651816E+00  9.204576087982E+00  9.222681134407E+00
  9.235819389971E+00  9.243809026874E+00  9.246473778860E+00  9.243643969107E+00
  9.235157573609E+00  9.220861315100E+00  9.200611781833E+00  9.174276564744E+00
  9.141735405757E+00  9.102881349219E+00  9.057621887689E+00  9.005880092604E+00
  8.947595719647E+00  8.882726278041E+00  8.811248052472E+00  8.733157065879E+00
  8.648469971041E+00  8.557224858702E+00  8.459481969912E+00  8.355324300383E+00
  8.244858084960E+00  8.128213150754E+00  8.005543128208E+00  7.877025510176E+00
  7.742861550233E+00  7.603275992677E+00  7.458516628134E+00  7.308853670370E+00
  7.154578951657E+00  6.996004936000E+00  6.833463551575E+00  6.667304845802E+00
  6.497895468650E+00  6.325616991860E+00  6.150864073887E+00  5.974042482307E+00
  5.795566987327E+00  5.615859141683E+00  5.435344963711E+00  5.254452541655E+00
  5.073609578269E+00  4.893240895587E+00  4.713765920275E+00  4.535596170327E+00
  4.359132764012E+00  4.184763971993E+00  4.012862833419E+00  3.843784856652E+00
  3.677865825068E+00  3.515419728226E+00  3.356736838577E+00  3.202081953778E+00
  3.051692824664E+00  2.905778788862E+00  2.764519629932E+00  2.628064681648E+00
  2.496532196478E+00  2.370008996419E+00  2.248550422857E+00  2.132180600044E+00
  2.020893023914E+00  1.914651484396E+00  1.813391325232E+00  1.717021040078E+00
  1.625424197091E+00  1.538462655798E+00  1.455983874543E+00  1.377830346744E+00
  1.303840954926E+00  1.233852040485E+00  1.167698510627E+00  1.105214812346E+00
  1.046235826864E+00  9.905976804807E-01  9.381384737818E-01  8.886989315435E-01
  8.421229760728E-01  7.982582270676E-01  7.569564314157E-01  7.180738266094E-01
  6.814714416522E-01  6.470153394886E-01  6.145768050763E-01  5.840324832638E-01
  5.552644706260E-01  5.281603653550E-01  5.026132792042E-01  4.785218153485E-01
  4.557900158571E-01  4.343272822870E-01  4.140482726996E-01  3.948727781896E-01
  3.767255818030E-01  3.595363025115E-01  3.432392267125E-01  3.277731295483E-01
  3.130810880748E-01  2.991102884168E-01  2.858118284978E-01  2.731405181254E-01
  2.610546779392E-01  2.495159386228E-01  2.384890416599E-01  2.279416427880E-01
  2.178441191831E-01  2.081693812835E-01  1.988926900456E-01  1.899914803013E-01
  1.814451907803E-01  1.732351012448E-01  1.653441770887E-01  1.577569216543E-01
  1.504592364332E-01  1.434382892400E-01  1.366823903740E-01  1.301808767213E-01
  1.239240036979E-01  1.179028448788E-01  1.121091991263E-01  1.065355049895E-01
  1.011747621214E-01  9.602045943897E-02  9.106650973147E-02  8.630719041215E-02
  8.173709009864E-02  7.735106070445E-02  7.314417472248E-02  6.911168738411E-02
  6.524900338270E-02  6.155164785731E-02  5.801524134217E-02  5.463547839735E-02
  5.140810964800E-02  4.832892697098E-02  4.539375157943E-02  4.259842476737E-02
  3.993880108650E-02  3.741074373703E-02  3.501012196153E-02  3.273281024703E-02
  3.057468911610E-02  2.853164734254E-02  2.659958538748E-02  2.477441987599E-02
  2.305208893506E-02  2.142855821855E-02  1.989982745032E-02  1.846193732386E-02
  1.711097660501E-02  1.584308929383E-02  1.465448171303E-02  1.354142940268E-02
  1.250028371428E-02  1.152747801165E-02  1.061953340066E-02  9.773063924907E-03
  8.984781178750E-03  8.251498303809E-03  7.570133347963E-03  6.937711978674E-03
  6.351369553596E-03  5.808352561459E-03  5.306019454907E-03  4.841840904175E-03
  4.413399506472E-03  4.018388990454E-03  3.654612958539E-03  3.319983211988E-03
  3.012517704811E-03  2.730338172729E-03  2.471667482831E-03  2.234826748210E-03
  2.018232249994E-03  1.820392206776E-03  1.639903428740E-03  1.475447890763E-03
  1.325789255591E-03  1.189769375000E-03  1.066304793334E-03  9.543832755325E-04
  8.530603747909E-04  7.614560694771E-04  6.787514273018E-04  6.041854648956E-04
  5.370518986377E-04  4.766961772217E-04  4.225125533915E-04  3.739412143451E-04
  3.304655525430E-04  2.916095398190E-04  2.569352022426E-04  2.260401995756E-04
  1.985555081883E-04  1.741432062540E-04  1.524943598045E-04  1.333270080673E-04
  1.163842463849E-04  1.014324049173E-04  8.825932125171E-05  7.667270496334E-05
  6.649859208866E-05  5.757988738809E-05  4.977499217648E-05  4.295651539857E-05
  3.701006551762E-05  3.183312067504E-05  2.733397446923E-05  2.343075459664E-05
  2.005051150151E-05  1.712837409501E-05  1.460676953291E-05  1.243470398601E-05
  1.056710129951E-05  8.964196419134E-06  7.590980461675E-06  6.416694327052E-06
  5.414367786093E-06  4.560401032929E-06  3.834185761206E-06  3.217762907891E-06
  2.695514305469E-06  2.253885590860E-06  1.881137835608E-06  1.567125484772E-06
  1.303098319831E-06  1.081525291798E-06  8.959382032942E-07  7.407933508008E-07
  6.113493695890E-07  5.035596525964E-07  4.139778398995E-07  3.396749965128E-07
  2.781672123982E-07  2.273524692382E-07  1.854557233501E-07  1.509812528042E-07
  1.226714092334E-07  9.947100091098E-08  8.049661347874E-08  6.501024832363E-08
  5.239672620942E-08  4.214436557583E-08  3.382850118699E-08  2.709745982440E-08
  2.166065578379E-08  1.727851036859E-08  1.375393669840E-08  1.092516429347E-08
  8.659707376114E-09  6.849306957021E-09  5.405699850958E-09  4.257088076287E-09
  3.345199908945E-09  2.622849436895E-09  2.051915033143E-09  1.601668953079E-09
  1.247400466972E-09  9.692837451604E-10  7.514492894566E-10  5.812242011985E-10
  4.485121305344E-10  3.452884851725E-10  2.651904987757E-10  2.031851660595E-10
  1.553009287879E-10  1.184114193095E-10  9.006160178218E-11  6.832835315648E-11
  5.170894615563E-11  3.903207804489E-11  2.938706910783E-11  2.206766539291E-11
  1.652754879429E-11  1.234520719771E-11  9.196268056259E-12  6.831767127327E-12
  5.061124340245E-12  3.738842762559E-12  2.754144347745E-12  2.022915892285E-12
  1.481467321106E-12  1.081707792461E-12  7.874279048846E-13  5.714424131946E-13
  4.134004255425E-13  2.981124844635E-13  2.142738448459E-13  1.328982048044E-14
  8.947784609924E-15  5.997549962273E-15  4.001943712701E-15  2.658173611453E-15
  1.757467093005E-15  1.156534233349E-15  7.574829405270E-16  4.937483294872E-16
  3.202815229085E-16  2.067408664863E-16  1.327894007451E-16  8.486277671732E-17
  5.395871647810E-17  3.413264926413E-17  2.147907446982E-17  1.344531642379E-17
  8.371609530084E-18  5.184438423242E-18  3.193163759591E-18  1.955865001220E-18
  1.191313126150E-18  7.215279414437E-19  4.345012318889E-19  2.601414764516E-19
  1.548383942981E-19  9.161520558210E-20  5.388219877527E-20  3.149782290309E-20
  1.829959563865E-20  1.056564579236E-20  6.061940615005E-21  3.455854668689E-21
  1.957465484095E-21  1.101523803771E-21  6.157730277652E-22  3.419321120561E-22
  1.885890991663E-22  1.033035686512E-22  5.619532645654E-23  3.035531789721E-23
  1.628103214723E-23  8.669715671254E-24  0.000000000000E+00  0.000000000000E+00
  0.000000000000E+00  0.000000000000E+00  0.000000000000E+00  0.000000000000E+00
  0.000000000000E+00  0.000000000000E+00
</data>
</radfunc>
</valence-charge>
<pseudocore-charge matching-radius="0.989549669260"
 number-of-continuous-derivatives="4">
<annotation model-charge-form="Teter function with specified parameters" />
<radfunc>
<data npts="291">
  4.252564165369E+01  4.252377422239E+01  4.251819163456E+01  4.250887726627E+01
  4.249520843247E+01  4.247776498497E+01  4.245552940795E+01  4.243006204913E+01
  4.240141944367E+01  4.236800786998E+01  4.233033467302E+01  4.228937127845E+01
  4.223984348367E+01  4.218809200507E+01  4.213636824739E+01  4.207675827557E+01
  4.200807278133E+01  4.194292368763E+01  4.186963409160E+01  4.178720297742E+01
  4.169451058269E+01  4.161213236703E+01  4.152168166209E+01  4.142238678245E+01
  4.131340633892E+01  4.119382380589E+01  4.106264185565E+01  4.095599461403E+01
  4.084172361926E+01  4.071930687306E+01  4.058819017063E+01  4.044778566933E+01
  4.029747048798E+01  4.013658535771E+01  3.996443334895E+01  3.978027870363E+01
  3.958334580666E+01  3.937281833612E+01  3.922449232885E+01  3.906947956121E+01
  3.890750737682E+01  3.873829489221E+01  3.856155305740E+01  3.837698475857E+01
  3.818428496814E+01  3.798314094737E+01  3.777323250744E+01  3.755423233521E+01
  3.732580639028E+01  3.708761438048E+01  3.683931032334E+01  3.658054320167E+01
  3.631095772142E+01  3.603019518105E+01  3.573789446136E+01  3.543369314574E+01
  3.511722878059E+01  3.478814028626E+01  3.444606952898E+01  3.409066306429E+01
  3.372157406251E+01  3.333846442662E+01  3.294100711265E+01  3.252888866214E+01
  3.210181195545E+01  3.165949919387E+01  3.120169511691E+01  3.096691107496E+01
  3.072817045985E+01  3.048544928247E+01  3.023872565433E+01  2.998797991653E+01
  2.973319477246E+01  2.947435542408E+01  2.921144971201E+01  2.894446825894E+01
  2.867340461664E+01  2.839825541615E+01  2.811902052123E+01  2.783570318470E+01
  2.754831020769E+01  2.725685210139E+01  2.696134325120E+01  2.666180208295E+01
  2.635825123087E+01  2.605071770703E+01  2.573923307190E+01  2.542383360553E+01
  2.510456047904E+01  2.478145992586E+01  2.445458341229E+01  2.412398780677E+01
  2.378973554730E+01  2.345189480636E+01  2.311053965267E+01  2.276575020909E+01
  2.241761280588E+01  2.206622012845E+01  2.171167135888E+01  2.135407231019E+01
  2.099353555242E+01  2.063018052963E+01  2.026413366666E+01  1.989552846460E+01
  1.952450558396E+01  1.915121291413E+01  1.877580562817E+01  1.839844622162E+01
  1.801930453386E+01  1.763855775112E+01  1.725639038941E+01  1.687299425626E+01
  1.648856838988E+01  1.610331897436E+01  1.571745922950E+01  1.533120927405E+01
  1.494479596092E+01  1.455845268312E+01  1.417241914914E+01  1.378694112665E+01
  1.340227015322E+01  1.301866321318E+01  1.263638237953E+01  1.225569442015E+01
  1.187687036741E+01  1.150018505082E+01  1.112591659206E+01  1.075434586233E+01
  1.038575590183E+01  1.002043130162E+01  9.658657548185E+00  9.300720331396E+00
  8.946904816838E+00  8.597494883616E+00  8.252772329267E+00  7.913016043589E+00
  7.578501153614E+00  7.249498142290E+00  6.926271943811E+00  6.609081018924E+00
  6.298176413945E+00  5.993800807585E+00  5.696187550130E+00  5.405559699881E+00
  5.122129062180E+00  4.846095236706E+00  4.577644679119E+00  4.316949783445E+00
  4.064167991934E+00  3.819440939387E+00  3.582893639209E+00  3.354633718609E+00
  3.134750710529E+00  2.923315409952E+00  2.720379302227E+00  2.525974070998E+00
  2.340111193147E+00  2.162781627915E+00  1.993955607024E+00  1.833582532162E+00
  1.681590985640E+00  1.537888859362E+00  1.402363606454E+00  1.274882619033E+00
  1.155293734541E+00  1.043425872006E+00  9.390897983247E-01  8.420790233768E-01
  7.521708213620E-01  6.691273742800E-01  5.926970319417E-01  5.226156813265E-01
  4.586082165102E-01  4.003900988052E-01  3.476689951996E-01  3.001464816909E-01
  2.575197967062E-01  2.194836285219E-01  1.857319194691E-01  1.559596687741E-01
  1.298647151653E-01  1.071494799117E-01  8.752265077230E-02  7.070078745554E-02
  5.640982963785E-02  4.438648938074E-02  3.437951093421E-02  2.615078241819E-02
  1.947628572923E-02  1.414687321365E-02  9.968862154681E-03  6.764440907498E-03
  4.371883537105E-03  2.645573015788E-03  1.455836355910E-03  6.885984172381E-04
  2.448644567877E-04  4.004469795572E-05  3.137196392784E-06  7.578798348240E-05
  2.112497876332E-04  3.732624873274E-04  5.348797652373E-04  6.772671490973E-04
  7.884966972824E-04  8.623629886815E-04  8.972438022268E-04  8.950269395039E-04
  8.601220970447E-04  7.985736010583E-04  7.172862686460E-04  6.233727704976E-04
  5.236267743300E-04  4.241219942745E-04  3.299332164303E-04  2.449715746530E-04
  1.719229680350E-04  1.122756841788E-04  6.642114107868E-05  3.381027756384E-05
  1.314756514066E-05  2.604899846918E-06  3.873512311259E-08  3.195665246283E-06
  9.894150709769E-06  1.817304159061E-05  2.640082188078E-05  3.334286653386E-05
  3.818726557777E-05  4.053272419837E-05  4.034451274101E-05  3.788626872519E-05
  3.363654289782E-05  2.819928688182E-05  2.221701524274E-05  1.629421467447E-05
  1.093684835372E-05  6.511691181847E-06  3.226939742420E-06  1.133290325676E-06
  1.426825182939E-07  6.034923081887E-08  6.248336890672E-07  1.550304538751E-06
  2.565825388176E-06  3.447146117766E-06  4.037946120328E-06  4.259090064655E-06
  4.106142062666E-06  3.636909202352E-06  2.951960370513E-06  2.171751556159E-06
  1.414114434352E-06  7.754408514147E-07  3.180106564382E-07  6.471922627245E-08
  0.000000000000E+00  0.000000000000E+00  0.000000000000E+00  0.000000000000E+00
  0.000000000000E+00  0.000000000000E+00  0.000000000000E+00  0.000000000000E+00
  0.000000000000E+00  0.000000000000E+00  0.000000000000E+00  0.000000000000E+00
  0.000000000000E+00  0.000000000000E+00  0.000000000000E+00  0.000000000000E+00
  0.000000000000E+00  0.000000000000E+00  0.000000000000E+00  0.000000000000E+00
  0.000000000000E+00  0.000000000000E+00  0.000000000000E+00  0.000000000000E+00
  0.000000000000E+00  0.000000000000E+00  0.000000000000E+00  0.000000000000E+00
  0.000000000000E+00  0.000000000000E+00  0.000000000000E+00  0.000000000000E+00
  0.000000000000E+00  0.000000000000E+00  0.000000000000E+00
</data>
</radfunc>
</pseudocore-charge>
<semilocal-potentials set="scalar_relativistic">
<slps n="5" l="s" rc="1.71293614326" eref="-2.68280201663">
<radfunc>
<data npts="291">
 -6.176447959643E+00 -6.177321509418E+00 -6.179932353062E+00 -6.184286578127E+00
 -6.190672148034E+00 -6.198813735489E+00 -6.209180091763E+00 -6.221036738943E+00
 -6.234350799187E+00 -6.249853790148E+00 -6.267298296095E+00 -6.286223282901E+00
 -6.309045309238E+00 -6.332822429554E+00 -6.356516049204E+00 -6.383734791076E+00
 -6.414982013352E+00 -6.444506643713E+00 -6.477588712905E+00 -6.514631409613E+00
 -6.556076956254E+00 -6.592726775552E+00 -6.632769907729E+00 -6.676491201895E+00
 -6.724193483858E+00 -6.776197445783E+00 -6.832841213818E+00 -6.878581716165E+00
 -6.927286713733E+00 -6.979116021007E+00 -7.034233348419E+00 -7.092805638358E+00
 -7.155002259409E+00 -7.220994043969E+00 -7.290952154097E+00 -7.365046760542E+00
 -7.443445520261E+00 -7.526311838544E+00 -7.584115972050E+00 -7.644020313675E+00
 -7.706067479638E+00 -7.770297770387E+00 -7.836748808951E+00 -7.905455156941E+00
 -7.976447908359E+00 -8.049754261497E+00 -8.125397069489E+00 -8.203394370258E+00
 -8.283758896876E+00 -8.366497569594E+00 -8.451610971095E+00 -8.539092806769E+00
 -8.628929352121E+00 -8.721098889708E+00 -8.815571138266E+00 -8.912306676984E+00
 -9.011256368148E+00 -9.112360781610E+00 -9.215549624775E+00 -9.320741182012E+00
 -9.427841767536E+00 -9.536745195973E+00 -9.647332274904E+00 -9.759470323758E+00
 -9.873012723430E+00 -9.987798501017E+00 -1.010365195398E+01 -1.016192004136E+01
 -1.022038231804E+01 -1.027901253845E+01 -1.033778348291E+01 -1.039666695169E+01
 -1.045563375995E+01 -1.051465373352E+01 -1.057369570581E+01 -1.063272751557E+01
 -1.069171600577E+01 -1.075062702344E+01 -1.080942542069E+01 -1.086807505680E+01
 -1.092653880143E+01 -1.098477853903E+01 -1.104275517446E+01 -1.110042863986E+01
 -1.115775790277E+01 -1.121470097554E+01 -1.127121492618E+01 -1.132725589047E+01
 -1.138277908561E+01 -1.143773882528E+01 -1.149208853622E+01 -1.154578077640E+01
 -1.159876725480E+01 -1.165099885286E+01 -1.170242564764E+01 -1.175299693680E+01
 -1.180266126542E+01 -1.185136645472E+01 -1.189905963279E+01 -1.194568726737E+01
 -1.199119520073E+01 -1.203552868678E+01 -1.207863243044E+01 -1.212045062937E+01
 -1.216092701806E+01 -1.220000491447E+01 -1.223762726921E+01 -1.227373671723E+01
 -1.230827563231E+01 -1.234118618409E+01 -1.237241039790E+01 -1.240189021731E+01
 -1.242956756935E+01 -1.245538443242E+01 -1.247928290683E+01 -1.250120528788E+01
 -1.252109414129E+01 -1.253889238098E+01 -1.255454334883E+01 -1.256799089624E+01
 -1.257917946727E+01 -1.258805418292E+01 -1.259456092622E+01 -1.259864642762E+01
 -1.260025835033E+01 -1.259934537481E+01 -1.259585728212E+01 -1.258974503522E+01
 -1.258096085769E+01 -1.256945830919E+01 -1.255519235676E+01 -1.253811944153E+01
 -1.251819753986E+01 -1.249538621845E+01 -1.246964668278E+01 -1.244094181839E+01
 -1.240923622469E+01 -1.237449624108E+01 -1.233668996558E+01 -1.229578726608E+01
 -1.225175978515E+01 -1.220458093921E+01 -1.215422591382E+01 -1.210067165699E+01
 -1.204389687328E+01 -1.198388202210E+01 -1.192060932447E+01 -1.185406278337E+01