<?xml version="1.0" encoding="UTF-8" ?>
<psml version="1.1" energy_unit="hartree" length_unit="bohr"
 uuid="8a703600-be45-11e7-4607-3371fe4dfca4"
 xmlns="http://esl.cecam.org/PSML/ns/1.1">
<provenance creator="ONCVPSP-3.3.0+psml-3.3.0-73 (scalar-relativistic)"
 date="2017-10-31">
<annotation action="semilocal-pseudopotential-generation"
 action-cont="projectors-generation" />
<input-file name="oncvpsp-input">
<![CDATA[# atsym z nc nv iexc psfile
Ba 56 9 3 4 upf
# n l f
1 0 2.0
2 0 2.0
2 1 6.0
3 0 2.0
3 1 6.0
3 2 10.0
4 0 2.0
4 1 6.0
4 2 10.0
5 0 2.0
5 1 6.0
6 0 2.0
# lmax
2
# l rc ep ncon nbas qcut
0 2.15 0.0 4 7 5.2
1 1.9 0.0 4 8 6.6
2 2.15 0.0 4 9 6.6
# lloc lpopt rc5 dvloc0
4 5 1.9 0.0
# l nproj debl
0 2 1.0
1 2 2.5
2 2 3.0
# icmod fcfact
3 5 1.25
# epsh1 epsh2 depsh
-12.0 12.0 0.02
# rlmax drl
6.0 0.01
 0
]]>
</input-file>
</provenance>
<pseudo-atom-spec atomic-label="Ba" atomic-number="56" z-pseudo="10"
 flavor="Hamann&apos;s oncvpsp" relativity="scalar" spin-dft="no"
 core-corrections="yes">
<annotation pseudo-energy="-25.6222035557" />
<exchange-correlation>
<annotation oncvpsp-xc-code="4" oncvpsp-xc-type="GGA -- Perdew-Burke-Ernzerhof" />
<libxc-info number-of-functionals="2">
<functional name="Perdew, Burke &amp; Ernzerhof (GGA)" type="exchange" id="101" />
<functional name="Perdew, Burke &amp; Ernzerhof (GGA)" type="correlation"
 id="130" />
</libxc-info>
</exchange-correlation>
<valence-configuration total-valence-charge="10">
<shell n="5" l="s" occupation="2" />
<shell n="5" l="p" occupation="6" />
<shell n="6" l="s" occupation="2" />
</valence-configuration>
</pseudo-atom-spec>
<grid npts="457">
<annotation type="sampled from oncvpsp log grid"
 recipe="r(i:1..N) = r1*exp(a*(i-1)) + r=0; resampled"
 recipe-cont="r1: scale; a: step" scale="0.892857142857E-05"
 step="0.119285708653E-01" delta="0.500000000000E-02" rmax="44.0559055307" />
<grid-data>
  0.000000000000E+00  5.030765996809E-03  1.004856027829E-02  1.507444276529E-02
  2.031206510006E-02  2.547908439618E-02  3.083699266043E-02  3.600963173750E-02
  4.105861707579E-02  4.626040627112E-02  5.150318121329E-02  5.666020677615E-02
  6.233360651298E-02  6.776194178895E-02  7.278953042278E-02  7.819014035445E-02
  8.399144785162E-02  8.915334250897E-02  9.463247370808E-02  1.004483379769E-01
  1.066216300490E-01  1.118323285593E-01  1.172976787660E-01  1.230301257351E-01
  1.290427227344E-01  1.353491609572E-01  1.419638006982E-01  1.471360711987E-01
  1.524967867957E-01  1.580528132467E-01  1.638112664542E-01  1.697795215795E-01
  1.759652224887E-01  1.823762915423E-01  1.890209397420E-01  1.959076772469E-01
  2.030453242728E-01  2.104430223891E-01  2.155239587216E-01  2.207275691810E-01
  2.260568156113E-01  2.315147313674E-01  2.371044230416E-01  2.428290722315E-01
  2.486919373514E-01  2.546963554868E-01  2.608457442937E-01  2.671436039439E-01
  2.735935191176E-01  2.801991610431E-01  2.869642895874E-01  2.938927553952E-01
  3.009885020814E-01  3.082555684757E-01  3.156980909209E-01  3.233203056281E-01
  3.311265510872E-01  3.391212705367E-01  3.473090144925E-01  3.556944433384E-01
  3.642823299784E-01  3.730775625534E-01  3.820851472237E-01  3.913102110182E-01
  4.007580047531E-01  4.104339060198E-01  4.203434222468E-01  4.253875433137E-01
  4.304921938335E-01  4.356581001595E-01  4.408859973614E-01  4.461766293297E-01
  4.515307488817E-01  4.569491178683E-01  4.624325072827E-01  4.679816973701E-01
  4.735974777385E-01  4.792806474714E-01  4.850320152411E-01  4.908523994239E-01
  4.967426282170E-01  5.027035397556E-01  5.087359822327E-01  5.148408140195E-01
  5.210189037877E-01  5.272711306332E-01  5.335983842008E-01  5.400015648112E-01
  5.464815835889E-01  5.530393625920E-01  5.596758349431E-01  5.663919449624E-01
  5.731886483020E-01  5.800669120816E-01  5.870277150266E-01  5.940720476069E-01
  6.012009121782E-01  6.084153231243E-01  6.157163070018E-01  6.231049026858E-01
  6.305821615181E-01  6.381491474563E-01  6.458069372257E-01  6.535566204725E-01
  6.613992999181E-01  6.693360915171E-01  6.773681246153E-01  6.854965421107E-01
  6.937225006161E-01  7.020471706235E-01  7.104717366709E-01  7.189973975110E-01
  7.276253662811E-01  7.363568706765E-01  7.451931531246E-01  7.541354709621E-01
  7.631850966137E-01  7.723433177730E-01  7.816114375863E-01  7.909907748373E-01
  8.004826641354E-01  8.100884561050E-01  8.198095175783E-01  8.296472317892E-01
  8.396029985707E-01  8.496782345535E-01  8.598743733682E-01  8.701928658486E-01
  8.806351802388E-01  8.912028024016E-01  9.018972360304E-01  9.127200028628E-01
  9.236726428972E-01  9.347567146119E-01  9.459737951873E-01  9.573254807295E-01
  9.688133864983E-01  9.804391471363E-01  9.922044169019E-01  1.004110869905E+00
  1.016160200344E+00  1.028354122748E+00  1.040694372221E+00  1.053182704687E+00
  1.065820897144E+00  1.078610747909E+00  1.091554076884E+00  1.104652725807E+00
  1.117908558516E+00  1.131323461219E+00  1.144899342753E+00  1.158638134866E+00
  1.172541792485E+00  1.186612293995E+00  1.200851641522E+00  1.215261861221E+00
  1.229845003555E+00  1.244603143598E+00  1.259538381321E+00  1.274652841897E+00
  1.289948676000E+00  1.305428060112E+00  1.321093196833E+00  1.336946315195E+00
  1.352989670978E+00  1.369225547029E+00  1.385656253594E+00  1.402284128637E+00
  1.419111538180E+00  1.436140876639E+00  1.453374567158E+00  1.470815061964E+00
  1.488464842708E+00  1.506326420820E+00  1.524402337870E+00  1.542695165924E+00
  1.561207507916E+00  1.579941998011E+00  1.598901301987E+00  1.618088117611E+00
  1.637505175022E+00  1.657155237122E+00  1.677041099968E+00  1.697165593167E+00
  1.717531580285E+00  1.738141959249E+00  1.758999662760E+00  1.780107658713E+00
  1.801468950617E+00  1.823086578025E+00  1.844963616961E+00  1.867103180365E+00
  1.889508418529E+00  1.912182519551E+00  1.935128709786E+00  1.958350254303E+00
  1.981850457355E+00  2.005632662843E+00  2.029700254797E+00  2.054056657855E+00
  2.078705337749E+00  2.103649801802E+00  2.128893599424E+00  2.154440322617E+00
  2.180293606488E+00  2.206457129766E+00  2.232934615323E+00  2.259729830707E+00
  2.286846588676E+00  2.314288747740E+00  2.342060212713E+00  2.370164935265E+00
  2.398606914488E+00  2.427390197462E+00  2.456518879832E+00  2.485997106390E+00
  2.515829071666E+00  2.546019020526E+00  2.576571248773E+00  2.607490103758E+00
  2.638779985003E+00  2.670445344823E+00  2.702490688961E+00  2.734920577229E+00
  2.767739624155E+00  2.800952499645E+00  2.834563929641E+00  2.868578696797E+00
  2.903001641158E+00  2.937837660852E+00  2.973091712782E+00  3.008768813336E+00
  3.044874039096E+00  3.081412527565E+00  3.118389477896E+00  3.155810151630E+00
  3.193679873450E+00  3.232004031931E+00  3.270788080314E+00  3.310037537278E+00
  3.349757987726E+00  3.389955083578E+00  3.430634544581E+00  3.471802159116E+00
  3.513463785026E+00  3.555625350446E+00  3.598292854651E+00  3.641472368907E+00
  3.685170037334E+00  3.729392077782E+00  3.774144782715E+00  3.819434520108E+00
  3.865267734349E+00  3.911650947161E+00  3.958590758527E+00  4.006093847630E+00
  4.054166973801E+00  4.102816977487E+00  4.152050781217E+00  4.201875390591E+00
  4.252297895278E+00  4.303325470022E+00  4.354965375662E+00  4.407224960170E+00
  4.460111659692E+00  4.513632999608E+00  4.567796595604E+00  4.622610154751E+00
  4.678081476608E+00  4.734218454327E+00  4.791029075779E+00  4.848521424688E+00
  4.906703681785E+00  4.965584125966E+00  5.025171135478E+00  5.085473189103E+00
  5.146498867373E+00  5.208256853781E+00  5.270755936027E+00  5.334005007259E+00
  5.398013067346E+00  5.462789224154E+00  5.528342694844E+00  5.594682807182E+00
  5.661819000868E+00  5.729760828879E+00  5.798517958825E+00  5.868100174331E+00
  5.938517376423E+00  6.009779584940E+00  6.081896939959E+00  6.154879703239E+00
  6.228738259678E+00  6.303483118794E+00  6.379124916219E+00  6.455674415214E+00
  6.533142508197E+00  6.611540218295E+00  6.690878700915E+00  6.771169245326E+00
  6.852423276269E+00  6.934652355585E+00  7.017868183852E+00  7.102082602058E+00
  7.187307593283E+00  7.273555284402E+00  7.360837947815E+00  7.449168003189E+00
  7.538558019227E+00  7.629020715458E+00  7.720568964043E+00  7.813215791612E+00
  7.906974381111E+00  8.001858073684E+00  8.097880370569E+00  8.195054935015E+00
  8.293395594236E+00  8.392916341366E+00  8.493631337463E+00  8.595554913512E+00
  8.698701572474E+00  8.803085991344E+00  8.908723023240E+00  9.015627699519E+00
  9.123815231913E+00  9.233301014696E+00  9.344100626873E+00  9.456229834395E+00
  9.569704592408E+00  9.684541047517E+00  9.800755540087E+00  9.918364606568E+00
  1.003738498185E+01  1.015783360163E+01  1.027972760485E+01  1.040308433611E+01
  1.052792134814E+01  1.065425640432E+01  1.078210748117E+01  1.091149277094E+01
  1.104243068419E+01  1.117493985241E+01  1.130903913063E+01  1.144474760020E+01
  1.158208457140E+01  1.172106958626E+01  1.186172242130E+01  1.200406309035E+01
  1.214811184744E+01  1.229388918961E+01  1.244141585988E+01  1.259071285020E+01
  1.274180140440E+01  1.289470302125E+01  1.304943945751E+01  1.320603273100E+01
  1.336450512377E+01  1.352487918526E+01  1.368717773548E+01  1.385142386831E+01
  1.401764095473E+01  1.418585264618E+01  1.435608287794E+01  1.452835587247E+01
  1.470269614294E+01  1.487912849666E+01  1.505767803862E+01  1.523837017508E+01
  1.542123061718E+01  1.560628538459E+01  1.579356080920E+01  1.598308353891E+01
  1.617488054138E+01  1.636897910788E+01  1.656540685717E+01  1.676419173946E+01
  1.696536204033E+01  1.716894638481E+01  1.737497374143E+01  1.758347342633E+01
  1.779447510744E+01  1.800800880873E+01  1.822410491444E+01  1.844279417341E+01
  1.866410770349E+01  1.888807699593E+01  1.911473391989E+01  1.934411072692E+01
  1.957624005565E+01  1.981115493632E+01  2.004888879555E+01  2.028947546110E+01
  2.053294916663E+01  2.077934455663E+01  2.102869669131E+01  2.128104105161E+01
  2.153641354422E+01  2.179485050676E+01  2.205638871284E+01  2.232106537739E+01
  2.258891816192E+01  2.285998517986E+01  2.313430500202E+01  2.341191666205E+01
  2.369285966199E+01  2.397717397793E+01  2.426490006567E+01  2.455607886646E+01
  2.485075181285E+01  2.514896083461E+01  2.545074836462E+01  2.575615734500E+01
  2.606523123314E+01  2.637801400794E+01  2.669455017603E+01  2.701488477814E+01
  2.733906339548E+01  2.766713215623E+01  2.799913774210E+01  2.833512739501E+01
  2.867514892375E+01  2.901925071083E+01  2.936748171936E+01  2.971989150000E+01
  3.007653019800E+01  3.043744856037E+01  3.080269794310E+01  3.117233031841E+01
  3.154639828223E+01  3.192495506162E+01  3.230805452236E+01  3.269575117663E+01
  3.308810019075E+01  3.348515739304E+01  3.388697928175E+01  3.429362303313E+01
  3.470514650953E+01  3.512160826765E+01  3.554306756686E+01  3.596958437766E+01
  3.640121939019E+01  3.683803402287E+01  3.728009043115E+01  3.772745151632E+01
  3.818018093452E+01  3.863834310573E+01  3.910200322300E+01  3.957122726168E+01
  4.004608198882E+01  4.052663497268E+01  4.101295459236E+01  4.150511004746E+01
  4.200317136803E+01  4.250720942445E+01  4.301729593754E+01  4.353350348879E+01
  4.405590553066E+01
</grid-data>
</grid>
<valence-charge total-charge="10" is-unscreening-charge="yes"
 rescaled-to-z-pseudo="no">
<radfunc>
<data npts="457">
  5.127685189060E-03  5.134973367765E-03  5.156794086604E-03  5.193311752726E-03
  5.247151742521E-03  5.316292279952E-03  5.405131650427E-03  5.507854166019E-03
  5.624624554481E-03  5.762499414504E-03  5.920111315522E-03  6.094081402932E-03
  6.308040946751E-03  6.535847942020E-03  6.767876349471E-03  7.040684217268E-03
  7.362224725379E-03  7.674358563301E-03  8.033845122047E-03  8.448780379688E-03
  8.928847764374E-03  9.367530950020E-03  9.862311889975E-03  1.042135337152E-02
  1.105416581417E-02  1.177185186690E-02  1.258739785884E-02  1.327233705409E-02
  1.402820282973E-02  1.486331935172E-02  1.578709083901E-02  1.681015047698E-02
  1.794453030035E-02  1.920385494114E-02  2.060356250489E-02  2.216115624186E-02
  2.389649111884E-02  2.583209986950E-02  2.724626383022E-02  2.876915376682E-02
  3.040993257050E-02  3.217857554479E-02  3.408594288086E-02  3.614385828260E-02
  3.836519418234E-02  4.076396400221E-02  4.335542192656E-02  4.615617065680E-02
  4.918427761896E-02  5.245940008593E-02  5.600291965704E-02  5.983808650663E-02
  6.399017376611E-02  6.848664233867E-02  7.335731635749E-02  7.863456938315E-02
  8.435352128827E-02  9.055224559205E-02  9.727198677670E-02  1.045573868354E-01
  1.124567199583E-01  1.210221338498E-01  1.303098956782E-01  1.403806400751E-01
  1.512996159166E-01  1.631369278196E-01  1.759677673596E-01  1.827807016559E-01
  1.898726279556E-01  1.972544677582E-01  2.049374961534E-01  2.129333458851E-01
  2.212540106690E-01  2.299118476674E-01  2.389195790178E-01  2.482902923042E-01
  2.580374398523E-01  2.681748367213E-01  2.787166572570E-01  2.896774300607E-01
  3.010720312224E-01  3.129156756533E-01  3.252239063488E-01  3.380125813976E-01
  3.512978585502E-01  3.650961771441E-01  3.794242371796E-01  3.942989753273E-01
  4.097375376426E-01  4.257572487540E-01  4.423755772840E-01  4.596100972566E-01
  4.774784452384E-01  4.959982729588E-01  5.151871951488E-01  5.350627323398E-01
  5.556422483640E-01  5.769428822994E-01  5.989814746106E-01  6.217744872434E-01
  6.453379174426E-01  6.696872050786E-01  6.948371332842E-01  7.208017222308E-01
  7.475941158942E-01  7.752264616980E-01  8.037097829575E-01  8.330538440890E-01
  8.632670086018E-01  8.943560899437E-01  9.263261953317E-01  9.591805627721E-01
  9.929203915478E-01  1.027544666536E+00  1.063049976807E+00  1.099430329062E+00
  1.136676956564E+00  1.174778124337E+00  1.213718931523E+00  1.253481111925E+00
  1.294042833883E+00  1.335378500782E+00  1.377458553629E+00  1.420249277282E+00
  1.463712612069E+00  1.507805972679E+00  1.552482076366E+00  1.597688782637E+00
  1.643368946760E+00  1.689460289539E+00  1.735895285941E+00  1.782601075270E+00
  1.829499395664E+00  1.876506545799E+00  1.923533376689E+00  1.970485316544E+00
  2.017262431618E+00  2.063759525944E+00  2.109866282790E+00  2.155467450539E+00
  2.200443075558E+00  2.244668784374E+00  2.288016117266E+00  2.330352915033E+00
  2.371543760332E+00  2.411450474589E+00  2.449932670947E+00  2.486848363229E+00
  2.522054630255E+00  2.555408334218E+00  2.586766891110E+00  2.615989090423E+00
  2.642935960573E+00  2.667471675620E+00  2.689464498028E+00  2.708787751293E+00
  2.725320815369E+00  2.738950136958E+00  2.749570245811E+00  2.757084767370E+00
  2.761407421283E+00  2.762462994581E+00  2.760188277684E+00  2.754532950873E+00
  2.745460408440E+00  2.732948507517E+00  2.716990228476E+00  2.697594233943E+00
  2.674785313802E+00  2.648604704144E+00  2.619110268953E+00  2.586376534447E+00
  2.550494567362E+00  2.511571690160E+00  2.469731028098E+00  2.425110885352E+00
  2.377863949876E+00  2.328156329440E+00  2.276166424208E+00  2.222083644346E+00
  2.166106984288E+00  2.108443468568E+00  2.049306487234E+00  1.988914041918E+00
  1.927486926418E+00  1.865246868114E+00  1.802414658551E+00  1.739208303070E+00
  1.675841220200E+00  1.612520521770E+00  1.549445404114E+00  1.486805679388E+00
  1.424780473838E+00  1.363537116887E+00  1.303230260239E+00  1.244001323056E+00
  1.185978290071E+00  1.129275638427E+00  1.073994299840E+00  1.020221797687E+00
  9.680324830332E-01  9.174878821868E-01  8.686371447988E-01  8.215175838520E-01
  7.761553910242E-01  7.325667775419E-01  6.907593314734E-01  6.507325686062E-01
  6.124785140948E-01  5.759822750787E-01  5.412226201927E-01  5.081725559927E-01
  4.767998975189E-01  4.470678295193E-01  4.189354546264E-01  3.923583266123E-01
  3.672889651591E-01  3.436773503155E-01  3.214713945576E-01  3.006173907540E-01
  2.810604346286E-01  2.627448206044E-01  2.456144101950E-01  2.296129723871E-01
  2.146844957234E-01  2.007734720463E-01  1.878251521005E-01  1.757857734039E-01
  1.646027609953E-01  1.542249018324E-01  1.446024937617E-01  1.356874701083E-01
  1.274335010347E-01  1.197960729131E-01  1.127325470400E-01  1.062021991084E-01
  1.001662409470E-01  9.458782614685E-02  8.943204131416E-02  8.466588481641E-02
  8.025823500238E-02  7.617980995010E-02  7.240312079613E-02  6.890242059085E-02
  6.565365038577E-02  6.263438389360E-02  5.982377160127E-02  5.720248472562E-02
  5.475265896031E-02  5.245783764642E-02  5.030291385654E-02  4.827407091826E-02
  4.635872108326E-02  4.454544230888E-02  4.282391339198E-02  4.118484792367E-02
  3.961992768476E-02  3.812173616799E-02  3.668369290395E-02  3.529998920357E-02
  3.396552583333E-02  3.267585303007E-02  3.142711315412E-02  3.021598618181E-02
  2.903963815470E-02  2.789567263513E-02  2.678208516364E-02  2.569722067209E-02
  2.463973377521E-02  2.360855183935E-02  2.260284071006E-02  2.162197296796E-02
  2.066549857434E-02  1.973311776358E-02  1.882465603962E-02  1.794004113682E-02
  1.707928181326E-02  1.624244835649E-02  1.542965469658E-02  1.464104204076E-02
  1.387676396409E-02  1.313697291266E-02  1.242180809543E-02  1.173138475819E-02
  1.106578484450E-02  1.042504905402E-02  9.809170306583E-03  9.218088610885E-03
  8.651687322008E-03  8.109790751443E-03  7.592163071339E-03  7.098508438881E-03
  6.628472204511E-03  6.181643147059E-03  5.757556546210E-03  5.355697975214E-03
  4.975507665803E-03  4.616385302941E-03  4.277695113157E-03  3.958771119600E-03
  3.658922448923E-03  3.377438588664E-03  3.113594508245E-03  2.866655571333E-03
  2.635882181605E-03  2.420534117499E-03  2.219874523992E-03  2.033173540735E-03
  1.859711555765E-03  1.698782082583E-03  1.549694265582E-03  1.411775024782E-03
  1.284370855502E-03  1.166849302317E-03  1.058600129248E-03  9.590362099674E-04
  8.675941628063E-04  7.837347557374E-04  7.069431063189E-04  6.367287009361E-04
  5.726252566589E-04  5.141904477045E-04  4.610055169580E-04  4.126747913010E-04
  3.688251177177E-04  3.291052353300E-04  2.931850967186E-04  2.607551501613E-04
  2.315255927948E-04  2.052256032190E-04  1.816025607258E-04  1.604212571656E-04
  1.414631064634E-04  1.245253559634E-04  1.094203030949E-04  9.597452031503E-05
  8.402809085534E-05  7.343385747955E-05  6.405668620845E-05  5.577274678085E-05
  4.846881146693E-05  4.204157372214E-05  3.639698805133E-05  3.144963233439E-05
  2.712209373970E-05  2.334437921617E-05  2.005335140732E-05  1.719219067111E-05
  1.470988372055E-05  1.256073922382E-05  1.070393052339E-05  9.103065454601E-06
  7.725783069846E-06  6.543376907266E-06  5.530444287333E-06  4.664560978095E-06
  3.925980443002E-06  3.297356775219E-06  2.763490329931E-06  2.311094991827E-06
  1.928585958221E-06  1.605886878752E-06  1.334255169217E-06  1.106124308571E-06
  9.149619331921E-07  7.551425595114E-07  6.218337935022E-07  5.108949216943E-07
  4.187868217632E-07  3.424921798194E-07  2.794450548880E-07  2.274688874253E-07
  1.847221068917E-07  1.496505523510E-07  1.209459788951E-07  9.750998063049E-08
  7.842271736860E-08  6.291588652301E-08  5.034943362242E-08  4.019154400611E-08
  3.200150446132E-08  2.541506666665E-08  2.013198425989E-08  1.590543215502E-08
  1.253305043940E-08  9.849385878251E-09  7.719531858533E-09  6.033792663336E-09
  4.703220439374E-09  3.655893277291E-09  2.833820643056E-09  2.190378158367E-09
  1.688187605581E-09  1.297370200860E-09  9.941118040795E-10  7.594879731011E-10
  5.785047716726E-10  4.393181426112E-10  3.326005886018E-10  2.510289789352E-10
  1.888716282092E-10  1.416564686272E-10  1.059052474459E-10  7.892130245199E-11
  5.862066953193E-11  4.339811782588E-11  3.202124266050E-11  2.354702071927E-11
  1.725628597553E-11  1.260245355551E-11  9.171531848095E-12  6.651046461151E-12
  4.805974887284E-12  3.460176520054E-12  2.482114609230E-12  1.773918024779E-12
  1.263032331789E-12  8.958708452793E-13  6.330046533036E-13  4.455323621577E-13
  3.123507045931E-13  2.181103984824E-13  1.516912042341E-13  1.050688083876E-13
  7.247622407403E-14  4.978566925766E-14  3.405482085011E-14  2.319511107337E-14
  1.573025593907E-14  1.062121468006E-14  7.139847889353E-15  4.778120852971E-15
  3.183137773632E-15  2.110864350925E-15  1.393310636572E-15  9.153647354209E-16
  5.985143396383E-16  3.894613452853E-16  2.521961942479E-16  1.625068637238E-16
  1.041929241354E-16  6.646791970437E-17  4.218586476461E-17  2.663644177014E-17
  1.673064495319E-17  1.045319890567E-17  6.496186641960E-18  4.015250653644E-18
  2.468217403454E-18  1.508836140202E-18  9.171906725218E-19  5.543787981164E-19
  3.331604246648E-19  0.000000000000E+00  0.000000000000E+00  0.000000000000E+00
  0.000000000000E+00
</data>
</radfunc>
</valence-charge>
<pseudocore-charge matching-radius="1.25953838132"
 number-of-continuous-derivatives="4">
<annotation model-charge-form="Teter function with specified parameters" />
<radfunc>
<data npts="290">
  1.464638582151E+01  1.464591336277E+01  1.464450094141E+01  1.464214425917E+01
  1.463868559600E+01  1.463427143015E+01  1.462864393473E+01  1.462219762301E+01
  1.461494644187E+01  1.460648640675E+01  1.459694531039E+01  1.458656854423E+01
  1.457401892334E+01  1.456090194430E+01  1.454778799353E+01  1.453266962027E+01
  1.451524289362E+01  1.449870686576E+01  1.448009699349E+01  1.445915620170E+01
  1.443559635896E+01  1.441464715942E+01  1.439163319865E+01  1.436635459131E+01
  1.433859286149E+01  1.430810937467E+01  1.427464367225E+01  1.424741738515E+01
  1.421822521724E+01  1.418692953397E+01  1.415338372782E+01  1.411743173691E+01
  1.407890755471E+01  1.403763473405E+01  1.399342588931E+01  1.394608220146E+01
  1.389539293170E+01  1.384113495039E+01  1.380286435903E+01  1.376282989885E+01
  1.372095572817E+01  1.367716329113E+01  1.363137127762E+01  1.358349558949E+01
  1.353344931418E+01  1.348114270655E+01  1.342648318044E+01  1.336937531102E+01
  1.330972084937E+01  1.324741875095E+01  1.318236521945E+01  1.311445376791E+01
  1.304357529908E+01  1.296961820692E+01  1.289246850166E+01  1.281200996074E+01
  1.272812430803E+01  1.264069142426E+01  1.254958959125E+01  1.245469577311E+01
  1.235588593748E+01  1.225303542004E+01  1.214601933575E+01  1.203471304026E+01
  1.191899264509E+01  1.179873559017E+01  1.167382127745E+01  1.160958066944E+01
  1.154413176903E+01  1.147746037538E+01  1.140955255355E+01  1.134039466246E+01
  1.126997338400E+01  1.119827575332E+01  1.112528919038E+01  1.105100153277E+01
  1.097540106976E+01  1.089847657766E+01  1.082021735648E+01  1.074061326788E+01
  1.065965477441E+01  1.057733298011E+01  1.049363967242E+01  1.040856736532E+01
  1.032210934391E+01  1.023425971011E+01  1.014501342980E+01  1.005436638104E+01
  9.962315403645E+00  9.868858349829E+00  9.773994136050E+00  9.677722795911E+00
  9.580045534099E+00  9.480964781279E+00  9.380484249871E+00  9.278608990640E+00
  9.175345449985E+00  9.070701527835E+00  8.964686636041E+00  8.857311757124E+00
  8.748589503259E+00  8.638534175330E+00  8.527161821904E+00  8.414490297942E+00
  8.300539323061E+00  8.185330539141E+00  8.068887567061E+00  7.951236062325E+00
  7.832403769340E+00  7.712420574071E+00  7.591318554799E+00  7.469132030683E+00
  7.345897607819E+00  7.221654222467E+00  7.096443181096E+00  6.970308196896E+00
  6.843295422382E+00  6.715453477699E+00  6.586833474225E+00  6.457489033056E+00
  6.327476297955E+00  6.196853942304E+00  6.065683169637E+00  5.934027707281E+00
  5.801953792643E+00  5.669530151686E+00  5.536827969118E+00  5.403920849828E+00
  5.270884771110E+00  5.137798025213E+00  5.004741151777E+00  4.871796859716E+00
  4.739049938149E+00  4.606587155965E+00  4.474497149693E+00  4.342870299310E+00
  4.211798591723E+00  4.081375471666E+00  3.951695679812E+00  3.822855077952E+00
  3.694950461175E+00  3.568079357010E+00  3.442339811625E+00  3.317830163183E+00
  3.194648802630E+00  3.072893922206E+00  2.952663252128E+00  2.834053785971E+00
  2.717161495397E+00  2.602081035006E+00  2.488905438191E+00  2.377725805037E+00
  2.268630983407E+00  2.161707244503E+00  2.057037954352E+00  1.954703242755E+00
  1.854779671430E+00  1.757339903175E+00  1.662452374020E+00  1.570180970479E+00
  1.480584714099E+00  1.393717455640E+00  1.309627581303E+00  1.228357733504E+00
  1.149944548757E+00  1.074418415286E+00  1.001803252989E+00  9.321163183939E-01
  8.653680372156E-01  8.015618670537E-01  7.406941927013E-01  6.827542563976E-01
  6.277241252055E-01  5.755786975006E-01  5.262857503228E-01  4.798060290706E-01
  4.360933807059E-01  3.950949312900E-01  3.567513082798E-01  3.209969075943E-01
  2.877602050046E-01  2.569641109135E-01  2.285263670855E-01  2.023599833536E-01
  1.783737117921E-01  1.564725552930E-01  1.365583069411E-01  1.185301160468E-01
  1.022850761854E-01  8.771883011019E-02  7.472618596923E-02  6.320173887224E-02
  5.304049153641E-02  4.413846749797E-02  3.639331022284E-02  2.970486139224E-02
  2.397571168892E-02  1.911171757177E-02  1.502247780844E-02  1.162176393889E-02
  8.827899369970E-03  6.564082448244E-03  4.758649622017E-03  3.345275673891E-03
  2.263108971073E-03  1.456840726191E-03  8.767083677400E-04  4.784342642871E-04
  2.231022050799E-04  7.697518423793E-05  1.125913680698E-05  1.818302206895E-06
  2.884881334026E-05  7.651789801781E-05  1.325767055144E-04  1.879552101787E-04
  2.363478755471E-04  2.737987712308E-04  2.982946123155E-04  3.093737358774E-04
  3.077583483162E-04  2.950164858960E-04  2.732590531416E-04  2.448760718737E-04
  2.123149276280E-04  1.779019864439E-04  1.437075248975E-04  1.114525241575E-04
  8.245457972848E-05  5.760902548738E-05  3.740041199796E-05  2.193875590326E-05
  1.101452048364E-05  4.166116037595E-06  7.538274737420E-07  3.447527537738E-08
  1.231769477139E-06  3.598184633347E-06  6.465214305475E-06  9.279993562638E-06
  1.162743801117E-05  1.323816629359E-05  1.398348063244E-05  1.385951501849E-05
  1.296327328866E-05  1.146363595957E-05  9.570500797048E-06  7.505044069063E-06
  5.473674471830E-06  3.647646157309E-06  2.149562975704E-06  1.047215191798E-06
  3.544186928614E-07  3.784804915751E-08  2.833134120332E-08  2.347522657792E-07
  5.586077426851E-07  9.073965256786E-07  1.205340806140E-06  1.400420916278E-06
  1.467268575670E-06  1.406043048305E-06  1.237933318566E-06  9.983235000697E-07
  7.288815935257E-07  4.698611782068E-07  2.537470298636E-07  1.010613854398E-07
  1.873237790899E-08  0.000000000000E+00  0.000000000000E+00  0.000000000000E+00
  0.000000000000E+00  0.000000000000E+00  0.000000000000E+00  0.000000000000E+00
  0.000000000000E+00  0.000000000000E+00  0.000000000000E+00  0.000000000000E+00
  0.000000000000E+00  0.000000000000E+00  0.000000000000E+00  0.000000000000E+00
  0.000000000000E+00  0.000000000000E+00  0.000000000000E+00  0.000000000000E+00
  0.000000000000E+00  0.000000000000E+00
</data>
</radfunc>
</pseudocore-charge>
<semilocal-potentials set="scalar_relativistic">
<slps n="5" l="s" rc="2.15444032262" eref="-1.23751765929">
<radfunc>
<data npts="290">
  6.839638559746E+01  6.834593976049E+01  6.819550594775E+01  6.794574733946E+01
  6.758199732106E+01  6.712252180217E+01  6.654436294855E+01  6.589234472519E+01
  6.517169401600E+01  6.434752442009E+01  6.343884249598E+01  6.247473563227E+01
  6.134106548847E+01  6.019233666637E+01  5.907917388973E+01  5.783758477221E+01
  5.645899920559E+01  5.520010590311E+01  5.383739415276E+01  5.236838543911E+01
  5.079182673479E+01  4.945322092014E+01  4.804673012685E+01  4.657394572462E+01
  4.503724397507E+01  4.343981851322E+01  4.178569474618E+01  4.051078136535E+01
  3.920902989066E+01  3.788302345203E+01  3.653556963929E+01  3.516968016629E+01
  3.378854658604E+01  3.239551241559E+01  3.099404215018E+01  2.958768775388E+01
  2.818005330426E+01  2.677475853551E+01  2.584097424525E+01  2.491088392734E+01
  2.398552510370E+01  2.306591476989E+01  2.215304508721E+01  2.124787930918E+01
  2.035134797676E+01  1.946434541258E+01  1.858772653991E+01  1.772230404725E+01
  1.686884591453E+01  1.602807331179E+01  1.520065887640E+01  1.438722536991E+01
  1.358834471112E+01  1.280453737751E+01  1.203627216355E+01  1.128396628059E+01
  1.054798578014E+01  9.828646279820E+00  9.126213969103E+00  8.440906870489E+00
  7.772896330615E+00  7.122308715202E+00  6.489227281581E+00  5.873694202729E+00
  5.275712717341E+00  4.695249381385E+00  4.132236397706E+00  3.857243794209E+00
  3.586574001689E+00  3.320209951950E+00  3.058132882546E+00  2.800322413099E+00
  2.546756621482E+00  2.297412119761E+00  2.052264129796E+00  1.811286558375E+00
  1.574452071821E+00  1.341732169962E+00  1.113097259393E+00  8.885167259622E-01
  6.679590063998E-01  4.513916590505E-01  2.387814336330E-01  3.009433999694E-02
 -1.747042841833E-01 -3.756497068029E-01 -5.727777358509E-01 -7.661246551028E-01
 -9.557271609854E-01 -1.141622300667E+00 -1.323847411374E+00 -1.502440060964E+00
 -1.677437989764E+00 -1.848879053709E+00 -2.016801168776E+00 -2.181242256748E+00
 -2.342240192314E+00 -2.499832751538E+00 -2.654057561703E+00 -2.804952052563E+00
 -2.952553409025E+00 -3.096898525297E+00 -3.238023960525E+00 -3.375965895962E+00
 -3.510760093707E+00 -3.642441857062E+00 -3.771045992538E+00 -3.896606773592E+00
 -4.019157906105E+00 -4.138732495693E+00 -4.255363016881E+00 -4.369081284201E+00
 -4.479918425258E+00 -4.587904855817E+00 -4.693070256932E+00 -4.795443554154E+00
 -4.895052898827E+00 -4.991925651464E+00 -5.086088367171E+00 -5.177566783112E+00
 -5.266385807853E+00 -5.352569512618E+00 -5.436141124191E+00 -5.517123019400E+00
 -5.595536720958E+00 -5.671402894445E+00 -5.744741346198E+00 -5.815571021856E+00
 -5.883910005274E+00 -5.949775517555E+00 -6.013183915913E+00 -6.074150692139E+00
 -6.132690470465E+00 -6.188817004636E+00 -6.242543174125E+00 -6.293880979437E+00
 -6.342841536592E+00 -6.389435070912E+00 -6.433670910412E+00 -6.475557479147E+00
 -6.515102290988E+00 -6.552311944425E+00 -6.587192119062E+00 -6.619747574565E+00
 -6.649982152873E+00 -6.677898784563E+00 -6.703499500238E+00 -6.726785447835E+00
 -6.747756916727E+00 -6.766413369402E+00 -6.782753481482E+00 -6.796775190641E+00
 -6.808475754948E+00 -6.817851820894E+00 -6.824899501230E+00 -6.829614462516E+00