<?xml version="1.0" encoding="UTF-8" ?>
<psml version="1.1" energy_unit="hartree" length_unit="bohr"
 uuid="de240f20-be6c-11e7-7d4f-020d9bdfbe54"
 xmlns="http://esl.cecam.org/PSML/ns/1.1">
<provenance creator="ONCVPSP-3.3.0+psml-3.3.0-73 (scalar-relativistic)"
 date="2017-10-31">
<annotation action="semilocal-pseudopotential-generation"
 action-cont="projectors-generation" />
<input-file name="oncvpsp-input">
<![CDATA[# atsym z nc nv iexc psfile
Ba 56 9 3 4 upf
# n l f
1 0 2.0
2 0 2.0
2 1 6.0
3 0 2.0
3 1 6.0
3 2 10.0
4 0 2.0
4 1 6.0
4 2 10.0
5 0 2.0
5 1 6.0
6 0 2.0
# lmax
2
# l rc ep ncon nbas qcut
0 1.95 0.0 3 8 5.2
1 1.8 0.0 4 8 6.6
2 1.9 0.0 4 9 6.8
# lloc lpopt rc5 dvloc0
4 5 1.8 0.0
# l nproj debl
0 2 1.0
1 2 2.5
2 2 3.0
# icmod fcfact rcfact
3 5.0 1.25
# epsh1 epsh2 depsh
-12.0 12.0 0.02
# rlmax drl
6.0 0.01
 0
]]>
</input-file>
</provenance>
<pseudo-atom-spec atomic-label="Ba" atomic-number="56" z-pseudo="10"
 flavor="Hamann&apos;s oncvpsp" relativity="scalar" spin-dft="no"
 core-corrections="yes">
<annotation pseudo-energy="-25.6194724015" />
<exchange-correlation>
<annotation oncvpsp-xc-code="4" oncvpsp-xc-type="GGA -- Perdew-Burke-Ernzerhof" />
<libxc-info number-of-functionals="2">
<functional name="Perdew, Burke &amp; Ernzerhof (GGA)" type="exchange" id="101" />
<functional name="Perdew, Burke &amp; Ernzerhof (GGA)" type="correlation"
 id="130" />
</libxc-info>
</exchange-correlation>
<valence-configuration total-valence-charge="10">
<shell n="5" l="s" occupation="2" />
<shell n="5" l="p" occupation="6" />
<shell n="6" l="s" occupation="2" />
</valence-configuration>
</pseudo-atom-spec>
<grid npts="457">
<annotation type="sampled from oncvpsp log grid"
 recipe="r(i:1..N) = r1*exp(a*(i-1)) + r=0; resampled"
 recipe-cont="r1: scale; a: step" scale="0.892857142857E-05"
 step="0.119285708653E-01" delta="0.500000000000E-02" rmax="44.0559055307" />
<grid-data>
  0.000000000000E+00  5.030765996809E-03  1.004856027829E-02  1.507444276529E-02
  2.031206510006E-02  2.547908439618E-02  3.083699266043E-02  3.600963173750E-02
  4.105861707579E-02  4.626040627112E-02  5.150318121329E-02  5.666020677615E-02
  6.233360651298E-02  6.776194178895E-02  7.278953042278E-02  7.819014035445E-02
  8.399144785162E-02  8.915334250897E-02  9.463247370808E-02  1.004483379769E-01
  1.066216300490E-01  1.118323285593E-01  1.172976787660E-01  1.230301257351E-01
  1.290427227344E-01  1.353491609572E-01  1.419638006982E-01  1.471360711987E-01
  1.524967867957E-01  1.580528132467E-01  1.638112664542E-01  1.697795215795E-01
  1.759652224887E-01  1.823762915423E-01  1.890209397420E-01  1.959076772469E-01
  2.030453242728E-01  2.104430223891E-01  2.155239587216E-01  2.207275691810E-01
  2.260568156113E-01  2.315147313674E-01  2.371044230416E-01  2.428290722315E-01
  2.486919373514E-01  2.546963554868E-01  2.608457442937E-01  2.671436039439E-01
  2.735935191176E-01  2.801991610431E-01  2.869642895874E-01  2.938927553952E-01
  3.009885020814E-01  3.082555684757E-01  3.156980909209E-01  3.233203056281E-01
  3.311265510872E-01  3.391212705367E-01  3.473090144925E-01  3.556944433384E-01
  3.642823299784E-01  3.730775625534E-01  3.820851472237E-01  3.913102110182E-01
  4.007580047531E-01  4.104339060198E-01  4.203434222468E-01  4.253875433137E-01
  4.304921938335E-01  4.356581001595E-01  4.408859973614E-01  4.461766293297E-01
  4.515307488817E-01  4.569491178683E-01  4.624325072827E-01  4.679816973701E-01
  4.735974777385E-01  4.792806474714E-01  4.850320152411E-01  4.908523994239E-01
  4.967426282170E-01  5.027035397556E-01  5.087359822327E-01  5.148408140195E-01
  5.210189037877E-01  5.272711306332E-01  5.335983842008E-01  5.400015648112E-01
  5.464815835889E-01  5.530393625920E-01  5.596758349431E-01  5.663919449624E-01
  5.731886483020E-01  5.800669120816E-01  5.870277150266E-01  5.940720476069E-01
  6.012009121782E-01  6.084153231243E-01  6.157163070018E-01  6.231049026858E-01
  6.305821615181E-01  6.381491474563E-01  6.458069372257E-01  6.535566204725E-01
  6.613992999181E-01  6.693360915171E-01  6.773681246153E-01  6.854965421107E-01
  6.937225006161E-01  7.020471706235E-01  7.104717366709E-01  7.189973975110E-01
  7.276253662811E-01  7.363568706765E-01  7.451931531246E-01  7.541354709621E-01
  7.631850966137E-01  7.723433177730E-01  7.816114375863E-01  7.909907748373E-01
  8.004826641354E-01  8.100884561050E-01  8.198095175783E-01  8.296472317892E-01
  8.396029985707E-01  8.496782345535E-01  8.598743733682E-01  8.701928658486E-01
  8.806351802388E-01  8.912028024016E-01  9.018972360304E-01  9.127200028628E-01
  9.236726428972E-01  9.347567146119E-01  9.459737951873E-01  9.573254807295E-01
  9.688133864983E-01  9.804391471363E-01  9.922044169019E-01  1.004110869905E+00
  1.016160200344E+00  1.028354122748E+00  1.040694372221E+00  1.053182704687E+00
  1.065820897144E+00  1.078610747909E+00  1.091554076884E+00  1.104652725807E+00
  1.117908558516E+00  1.131323461219E+00  1.144899342753E+00  1.158638134866E+00
  1.172541792485E+00  1.186612293995E+00  1.200851641522E+00  1.215261861221E+00
  1.229845003555E+00  1.244603143598E+00  1.259538381321E+00  1.274652841897E+00
  1.289948676000E+00  1.305428060112E+00  1.321093196833E+00  1.336946315195E+00
  1.352989670978E+00  1.369225547029E+00  1.385656253594E+00  1.402284128637E+00
  1.419111538180E+00  1.436140876639E+00  1.453374567158E+00  1.470815061964E+00
  1.488464842708E+00  1.506326420820E+00  1.524402337870E+00  1.542695165924E+00
  1.561207507916E+00  1.579941998011E+00  1.598901301987E+00  1.618088117611E+00
  1.637505175022E+00  1.657155237122E+00  1.677041099968E+00  1.697165593167E+00
  1.717531580285E+00  1.738141959249E+00  1.758999662760E+00  1.780107658713E+00
  1.801468950617E+00  1.823086578025E+00  1.844963616961E+00  1.867103180365E+00
  1.889508418529E+00  1.912182519551E+00  1.935128709786E+00  1.958350254303E+00
  1.981850457355E+00  2.005632662843E+00  2.029700254797E+00  2.054056657855E+00
  2.078705337749E+00  2.103649801802E+00  2.128893599424E+00  2.154440322617E+00
  2.180293606488E+00  2.206457129766E+00  2.232934615323E+00  2.259729830707E+00
  2.286846588676E+00  2.314288747740E+00  2.342060212713E+00  2.370164935265E+00
  2.398606914488E+00  2.427390197462E+00  2.456518879832E+00  2.485997106390E+00
  2.515829071666E+00  2.546019020526E+00  2.576571248773E+00  2.607490103758E+00
  2.638779985003E+00  2.670445344823E+00  2.702490688961E+00  2.734920577229E+00
  2.767739624155E+00  2.800952499645E+00  2.834563929641E+00  2.868578696797E+00
  2.903001641158E+00  2.937837660852E+00  2.973091712782E+00  3.008768813336E+00
  3.044874039096E+00  3.081412527565E+00  3.118389477896E+00  3.155810151630E+00
  3.193679873450E+00  3.232004031931E+00  3.270788080314E+00  3.310037537278E+00
  3.349757987726E+00  3.389955083578E+00  3.430634544581E+00  3.471802159116E+00
  3.513463785026E+00  3.555625350446E+00  3.598292854651E+00  3.641472368907E+00
  3.685170037334E+00  3.729392077782E+00  3.774144782715E+00  3.819434520108E+00
  3.865267734349E+00  3.911650947161E+00  3.958590758527E+00  4.006093847630E+00
  4.054166973801E+00  4.102816977487E+00  4.152050781217E+00  4.201875390591E+00
  4.252297895278E+00  4.303325470022E+00  4.354965375662E+00  4.407224960170E+00
  4.460111659692E+00  4.513632999608E+00  4.567796595604E+00  4.622610154751E+00
  4.678081476608E+00  4.734218454327E+00  4.791029075779E+00  4.848521424688E+00
  4.906703681785E+00  4.965584125966E+00  5.025171135478E+00  5.085473189103E+00
  5.146498867373E+00  5.208256853781E+00  5.270755936027E+00  5.334005007259E+00
  5.398013067346E+00  5.462789224154E+00  5.528342694844E+00  5.594682807182E+00
  5.661819000868E+00  5.729760828879E+00  5.798517958825E+00  5.868100174331E+00
  5.938517376423E+00  6.009779584940E+00  6.081896939959E+00  6.154879703239E+00
  6.228738259678E+00  6.303483118794E+00  6.379124916219E+00  6.455674415214E+00
  6.533142508197E+00  6.611540218295E+00  6.690878700915E+00  6.771169245326E+00
  6.852423276269E+00  6.934652355585E+00  7.017868183852E+00  7.102082602058E+00
  7.187307593283E+00  7.273555284402E+00  7.360837947815E+00  7.449168003189E+00
  7.538558019227E+00  7.629020715458E+00  7.720568964043E+00  7.813215791612E+00
  7.906974381111E+00  8.001858073684E+00  8.097880370569E+00  8.195054935015E+00
  8.293395594236E+00  8.392916341366E+00  8.493631337463E+00  8.595554913512E+00
  8.698701572474E+00  8.803085991344E+00  8.908723023240E+00  9.015627699519E+00
  9.123815231913E+00  9.233301014696E+00  9.344100626873E+00  9.456229834395E+00
  9.569704592408E+00  9.684541047517E+00  9.800755540087E+00  9.918364606568E+00
  1.003738498185E+01  1.015783360163E+01  1.027972760485E+01  1.040308433611E+01
  1.052792134814E+01  1.065425640432E+01  1.078210748117E+01  1.091149277094E+01
  1.104243068419E+01  1.117493985241E+01  1.130903913063E+01  1.144474760020E+01
  1.158208457140E+01  1.172106958626E+01  1.186172242130E+01  1.200406309035E+01
  1.214811184744E+01  1.229388918961E+01  1.244141585988E+01  1.259071285020E+01
  1.274180140440E+01  1.289470302125E+01  1.304943945751E+01  1.320603273100E+01
  1.336450512377E+01  1.352487918526E+01  1.368717773548E+01  1.385142386831E+01
  1.401764095473E+01  1.418585264618E+01  1.435608287794E+01  1.452835587247E+01
  1.470269614294E+01  1.487912849666E+01  1.505767803862E+01  1.523837017508E+01
  1.542123061718E+01  1.560628538459E+01  1.579356080920E+01  1.598308353891E+01
  1.617488054138E+01  1.636897910788E+01  1.656540685717E+01  1.676419173946E+01
  1.696536204033E+01  1.716894638481E+01  1.737497374143E+01  1.758347342633E+01
  1.779447510744E+01  1.800800880873E+01  1.822410491444E+01  1.844279417341E+01
  1.866410770349E+01  1.888807699593E+01  1.911473391989E+01  1.934411072692E+01
  1.957624005565E+01  1.981115493632E+01  2.004888879555E+01  2.028947546110E+01
  2.053294916663E+01  2.077934455663E+01  2.102869669131E+01  2.128104105161E+01
  2.153641354422E+01  2.179485050676E+01  2.205638871284E+01  2.232106537739E+01
  2.258891816192E+01  2.285998517986E+01  2.313430500202E+01  2.341191666205E+01
  2.369285966199E+01  2.397717397793E+01  2.426490006567E+01  2.455607886646E+01
  2.485075181285E+01  2.514896083461E+01  2.545074836462E+01  2.575615734500E+01
  2.606523123314E+01  2.637801400794E+01  2.669455017603E+01  2.701488477814E+01
  2.733906339548E+01  2.766713215623E+01  2.799913774210E+01  2.833512739501E+01
  2.867514892375E+01  2.901925071083E+01  2.936748171936E+01  2.971989150000E+01
  3.007653019800E+01  3.043744856037E+01  3.080269794310E+01  3.117233031841E+01
  3.154639828223E+01  3.192495506162E+01  3.230805452236E+01  3.269575117663E+01
  3.308810019075E+01  3.348515739304E+01  3.388697928175E+01  3.429362303313E+01
  3.470514650953E+01  3.512160826765E+01  3.554306756686E+01  3.596958437766E+01
  3.640121939019E+01  3.683803402287E+01  3.728009043115E+01  3.772745151632E+01
  3.818018093452E+01  3.863834310573E+01  3.910200322300E+01  3.957122726168E+01
  4.004608198882E+01  4.052663497268E+01  4.101295459236E+01  4.150511004746E+01
  4.200317136803E+01  4.250720942445E+01  4.301729593754E+01  4.353350348879E+01
  4.405590553066E+01
</grid-data>
</grid>
<valence-charge total-charge="10" is-unscreening-charge="yes"
 rescaled-to-z-pseudo="no">
<radfunc>
<data npts="457">
  1.758014640062E-03  1.762930757104E-03  1.777661979795E-03  1.802356537363E-03
  1.838858533342E-03  1.885894671704E-03  1.946591869786E-03  2.017129874572E-03
  2.097764104415E-03  2.193567807844E-03  2.303847737607E-03  2.426478645994E-03
  2.578541110366E-03  2.741877270790E-03  2.909678640862E-03  3.108725923635E-03
  3.345619149583E-03  3.577802818449E-03  3.847742730679E-03  4.162458609013E-03
  4.530457211109E-03  4.870096655424E-03  5.256727860309E-03  5.697765339606E-03
  6.201928430234E-03  6.779487641077E-03  7.442559079977E-03  8.004496566046E-03
  8.629515465990E-03  9.325541448118E-03  1.010157585509E-02  1.096784749329E-02
  1.193598595413E-02  1.301921942943E-02  1.423260035436E-02  1.559326261772E-02
  1.712071452014E-02  1.883717213347E-02  2.009883593625E-02  2.146402183356E-02
  2.294183235400E-02  2.454219465604E-02  2.627593457088E-02  2.815485690443E-02
  3.019183244134E-02  3.240089210779E-02  3.479732875953E-02  3.739780706650E-02
  4.022048196408E-02  4.328512613135E-02  4.661326693689E-02  5.022833326071E-02
  5.415581255301E-02  5.842341842429E-02  6.306126897267E-02  6.810207593838E-02
  7.358134462798E-02  7.953758436517E-02  8.601252899510E-02  9.305136668778E-02
  1.007029779437E-01  1.090201802941E-01  1.180599776982E-01  1.278838120572E-01
  1.385578135852E-01  1.501530459779E-01  1.627457413982E-01  1.694414278289E-01
  1.764175192375E-01  1.836850918675E-01  1.912555813956E-01  1.991407871282E-01
  2.073528754542E-01  2.159043824552E-01  2.248082155736E-01  2.340776542235E-01
  2.437263492277E-01  2.537683209524E-01  2.642179560027E-01  2.750900023351E-01
  2.863995626304E-01  2.981620857664E-01  3.103933562138E-01  3.231094811752E-01
  3.363268752732E-01  3.500622425858E-01  3.643325558182E-01  3.791550323893E-01
  3.945471072044E-01  4.105264018749E-01  4.271106901400E-01  4.443178592375E-01
  4.621658669644E-01  4.806726941639E-01  4.998562923723E-01  5.197345263543E-01
  5.403251112609E-01  5.616455441400E-01  5.837130295386E-01  6.065443989417E-01
  6.301560238025E-01  6.545637219335E-01  6.797826570465E-01  7.058272312487E-01
  7.327109703335E-01  7.604464017304E-01  7.890449250226E-01  8.185166749763E-01
  8.488703770835E-01  8.801131956688E-01  9.122505746792E-01  9.452860713444E-01
  9.792211829757E-01  1.014055167254E+00  1.049784856462E+00  1.086404466200E+00
  1.123905399269E+00  1.162276045484E+00  1.201501578342E+00  1.241563749601E+00
  1.282440682936E+00  1.324106668047E+00  1.366531956689E+00  1.409682562309E+00
  1.453520065084E+00  1.498001424370E+00  1.543078800707E+00  1.588699389689E+00
  1.634805270181E+00  1.681333269494E+00  1.728214848287E+00  1.775376008080E+00
  1.822737224353E+00  1.870213408336E+00  1.917713900586E+00  1.965142499542E+00
  2.012397528197E+00  2.059371941980E+00  2.105953480886E+00  2.152024868702E+00
  2.197464062012E+00  2.242144551408E+00  2.285935717012E+00  2.328703240040E+00
  2.370309571700E+00  2.410614460198E+00  2.449475536038E+00  2.486748955183E+00
  2.522290098885E+00  2.555954328273E+00  2.587597790904E+00  2.617078275652E+00
  2.644256111370E+00  2.668995103814E+00  2.691163504398E+00  2.710635003348E+00
  2.727289738937E+00  2.741015313570E+00  2.751707806670E+00  2.759272773555E+00
  2.763626218886E+00  2.764695532738E+00  2.762420376996E+00  2.756753509620E+00
  2.747661534331E+00  2.735125563521E+00  2.719141782647E+00  2.699721905129E+00
  2.676893507681E+00  2.650700237283E+00  2.621201882426E+00  2.588474302982E+00
  2.552609214951E+00  2.513713828441E+00  2.471910339455E+00  2.427335278415E+00
  2.380138720750E+00  2.330483367226E+00  2.278543504059E+00  2.224503854981E+00
  2.168558339462E+00  2.110908752977E+00  2.051763386632E+00  1.991335604487E+00
  1.929842397554E+00  1.867502933609E+00  1.804537121749E+00  1.741164209871E+00
  1.677601432201E+00  1.614062443636E+00  1.550754712191E+00  1.487876516130E+00
  1.425615878916E+00  1.364150282910E+00  1.303645904810E+00  1.244257127964E+00
  1.186122083184E+00  1.129350245658E+00  1.074026650920E+00  1.020232009566E+00
  9.680329671309E-01  9.174854765962E-01  8.686348015425E-01  8.215160172831E-01
  7.761545076196E-01  7.325664878556E-01  6.907595486986E-01  6.507332159270E-01
  6.124795209331E-01  5.759835775137E-01  5.412241605551E-01  5.081742825409E-01
  4.768017641052E-01  4.470697952510E-01  4.189374835245E-01  3.923603872717E-01
  3.672910304123E-01  3.436793969020E-01  3.214734028019E-01  3.006193442524E-01
  2.810623199486E-01  2.627466269957E-01  2.456161293143E-01  2.296145980378E-01
  2.146860236096E-01  2.007748995430E-01  1.878264780383E-01  1.757869978701E-01
  1.646038851502E-01  1.542259277400E-01  1.446034242364E-01  1.356883085749E-01
  1.274342514023E-01  1.197967394626E-01  1.127331343234E-01  1.062027118597E-01
  1.001666840049E-01  9.458820438689E-02  8.943235959083E-02  8.466614791384E-02
  8.025844759319E-02  7.617997656164E-02  7.240324578340E-02  6.890250811545E-02
  6.565370440031E-02  6.263440813082E-02  5.982376956736E-02  5.720245969719E-02
  5.475261398437E-02  5.245777554297E-02  5.030283722323E-02  4.827398213678E-02
  4.635862232706E-02  4.454533555188E-02  4.282380041806E-02  4.118473033665E-02
  3.961980691872E-02  3.812161349772E-02  3.668356945548E-02  3.529986596454E-02
  3.396540366320E-02  3.267573267008E-02  3.142699523694E-02  3.021587124075E-02
  2.903952663257E-02  2.789556489266E-02  2.678198148740E-02  2.569712128200E-02
  2.463963883152E-02  2.360846144920E-02  2.260275493357E-02  2.162189182386E-02
  2.066542204516E-02  1.973304580045E-02  1.882458856666E-02  1.793997805512E-02
  1.707922300458E-02  1.624239368654E-02  1.542960401805E-02  1.464099519602E-02
  1.387672078766E-02  1.313693323339E-02  1.242177173846E-02  1.173135154668E-02
  1.106575460120E-02  1.042502160264E-02  9.809145472942E-03  9.218066223969E-03
  8.651667214847E-03  8.109772761857E-03  7.592147042562E-03  7.098494219854E-03
  6.628459650718E-03  6.181632120602E-03  5.757546916021E-03  5.355689617192E-03
  4.975500462870E-03  4.616379145043E-03  4.277689897204E-03  3.958766749361E-03
  3.658918834871E-03  3.377435647797E-03  3.113592163866E-03  2.866653752813E-03
  2.635880824130E-03  2.420533161791E-03  2.219873916035E-03  2.033173231485E-03
  1.859711500861E-03  1.698782242056E-03  1.549694603571E-03  1.411775509250E-03
  1.284371457965E-03  1.166849997572E-03  1.058600895119E-03  9.590370270585E-04
  8.675950142642E-04  7.837356270279E-04  7.069439850134E-04  6.367295765116E-04
  5.726261203085E-04  5.141912921610E-04  4.610063363285E-04  4.126755809131E-04
  3.688258739773E-04  3.291059555897E-04  2.931857791563E-04  2.607557936691E-04
  2.315261968775E-04  2.052261679019E-04  1.816030864708E-04  1.604217447957E-04
  1.414635570955E-04  1.245257709474E-04  1.094206839606E-04  9.597486872474E-05
  8.402840856297E-05  7.343414629477E-05  6.405694796607E-05  5.577298331488E-05
  4.846902458875E-05  4.204176520257E-05  3.639715960612E-05  3.144978561276E-05
  2.712223031561E-05  2.334450058203E-05  2.005345896975E-05  1.719228574850E-05
  1.470996754223E-05  1.256081293044E-05  1.070399516843E-05  9.103122006756E-06
  7.725832416081E-06  6.543419856426E-06  5.530481574143E-06  4.664593267425E-06
  3.926008334306E-06  3.297380807033E-06  2.763510984386E-06  2.311112699080E-06
  1.928601100776E-06  1.605899795627E-06  1.334266159916E-06  1.106133636848E-06
  9.149698305922E-07  7.551492286728E-07  6.218394112219E-07  5.108996417551E-07
  4.187907775267E-07  3.424954865922E-07  2.794478120698E-07  2.274711804502E-07
  1.847240089744E-07  1.496521260505E-07  1.209472775096E-07  9.751104943549E-08
  7.842359471278E-08  6.291660479332E-08  5.035002009136E-08  4.019202157246E-08
  3.200189229555E-08  2.541538077107E-08  2.013223795311E-08  1.590563648953E-08
  1.253321456013E-08  9.849517329421E-09  7.719636845406E-09  6.033876274624E-09
  4.703286835657E-09  3.655945850055E-09  2.833862148493E-09  2.190410829561E-09
  1.688213246240E-09  1.297390263385E-09  9.941274543575E-10  7.595001440945E-10
  5.785142076028E-10  4.393254352560E-10  3.326062070150E-10  2.510332936980E-10
  1.888749311507E-10  1.416589888059E-10  1.059071640561E-10  7.892275521077E-11
  5.862176700893E-11  4.339894410018E-11  3.202186262148E-11  2.354748427283E-11
  1.725663136952E-11  1.260270999949E-11  9.171721569561E-12  6.651186313468E-12
  4.806077602524E-12  3.460251681410E-12  2.482169402985E-12  1.773957819568E-12
  1.263061123117E-12  8.958915953196E-13  6.330195496263E-13  4.455430139559E-13
  3.123582909119E-13  2.181157797406E-13  1.516950057883E-13  1.050714828893E-13
  7.247809780979E-14  4.978697644182E-14  3.405572889443E-14  2.319573912848E-14
  1.573068844015E-14  1.062151119966E-14  7.140050272382E-15  4.778258360569E-15
  3.183230774787E-15  2.110926959797E-15  1.393352587910E-15  9.153927119871E-16
  5.985329073147E-16  3.894736086849E-16  2.522042541482E-16  1.625121346739E-16
  1.041963538915E-16  6.647014008280E-17  4.218729482429E-17  2.663735802947E-17
  1.673122892634E-17  1.045356911787E-17  6.496420076380E-18  4.015397042437E-18
  2.468308699403E-18  1.508892759896E-18  9.172255887344E-19  5.544002073512E-19
  3.331734761576E-19  0.000000000000E+00  0.000000000000E+00  0.000000000000E+00
  0.000000000000E+00
</data>
</radfunc>
</valence-charge>
<pseudocore-charge matching-radius="1.25953838132"
 number-of-continuous-derivatives="4">
<annotation model-charge-form="Teter function with specified parameters" />
<radfunc>
<data npts="290">
  1.464638582151E+01  1.464591336277E+01  1.464450094141E+01  1.464214425917E+01
  1.463868559600E+01  1.463427143015E+01  1.462864393473E+01  1.462219762301E+01
  1.461494644187E+01  1.460648640675E+01  1.459694531039E+01  1.458656854423E+01
  1.457401892334E+01  1.456090194430E+01  1.454778799353E+01  1.453266962027E+01
  1.451524289362E+01  1.449870686576E+01  1.448009699349E+01  1.445915620170E+01
  1.443559635896E+01  1.441464715942E+01  1.439163319865E+01  1.436635459131E+01
  1.433859286149E+01  1.430810937467E+01  1.427464367225E+01  1.424741738515E+01
  1.421822521724E+01  1.418692953397E+01  1.415338372782E+01  1.411743173691E+01
  1.407890755471E+01  1.403763473405E+01  1.399342588931E+01  1.394608220146E+01
  1.389539293170E+01  1.384113495039E+01  1.380286435903E+01  1.376282989885E+01
  1.372095572817E+01  1.367716329113E+01  1.363137127762E+01  1.358349558949E+01
  1.353344931418E+01  1.348114270655E+01  1.342648318044E+01  1.336937531102E+01
  1.330972084937E+01  1.324741875095E+01  1.318236521945E+01  1.311445376791E+01
  1.304357529908E+01  1.296961820692E+01  1.289246850166E+01  1.281200996074E+01
  1.272812430803E+01  1.264069142426E+01  1.254958959125E+01  1.245469577311E+01
  1.235588593748E+01  1.225303542004E+01  1.214601933575E+01  1.203471304026E+01
  1.191899264509E+01  1.179873559017E+01  1.167382127745E+01  1.160958066944E+01
  1.154413176903E+01  1.147746037538E+01  1.140955255355E+01  1.134039466246E+01
  1.126997338400E+01  1.119827575332E+01  1.112528919038E+01  1.105100153277E+01
  1.097540106976E+01  1.089847657766E+01  1.082021735648E+01  1.074061326788E+01
  1.065965477441E+01  1.057733298011E+01  1.049363967242E+01  1.040856736532E+01
  1.032210934391E+01  1.023425971011E+01  1.014501342980E+01  1.005436638104E+01
  9.962315403645E+00  9.868858349829E+00  9.773994136050E+00  9.677722795911E+00
  9.580045534099E+00  9.480964781279E+00  9.380484249871E+00  9.278608990640E+00
  9.175345449985E+00  9.070701527835E+00  8.964686636041E+00  8.857311757124E+00
  8.748589503259E+00  8.638534175330E+00  8.527161821904E+00  8.414490297942E+00
  8.300539323061E+00  8.185330539141E+00  8.068887567061E+00  7.951236062325E+00
  7.832403769340E+00  7.712420574071E+00  7.591318554799E+00  7.469132030683E+00
  7.345897607819E+00  7.221654222467E+00  7.096443181096E+00  6.970308196896E+00
  6.843295422382E+00  6.715453477699E+00  6.586833474225E+00  6.457489033056E+00
  6.327476297955E+00  6.196853942304E+00  6.065683169637E+00  5.934027707281E+00
  5.801953792643E+00  5.669530151686E+00  5.536827969118E+00  5.403920849828E+00
  5.270884771110E+00  5.137798025213E+00  5.004741151777E+00  4.871796859716E+00
  4.739049938149E+00  4.606587155965E+00  4.474497149693E+00  4.342870299310E+00
  4.211798591723E+00  4.081375471666E+00  3.951695679812E+00  3.822855077952E+00
  3.694950461175E+00  3.568079357010E+00  3.442339811625E+00  3.317830163183E+00
  3.194648802630E+00  3.072893922206E+00  2.952663252128E+00  2.834053785971E+00
  2.717161495397E+00  2.602081035006E+00  2.488905438191E+00  2.377725805037E+00
  2.268630983407E+00  2.161707244503E+00  2.057037954352E+00  1.954703242755E+00
  1.854779671430E+00  1.757339903175E+00  1.662452374020E+00  1.570180970479E+00
  1.480584714099E+00  1.393717455640E+00  1.309627581303E+00  1.228357733504E+00
  1.149944548757E+00  1.074418415286E+00  1.001803252989E+00  9.321163183939E-01
  8.653680372156E-01  8.015618670537E-01  7.406941927013E-01  6.827542563976E-01
  6.277241252055E-01  5.755786975006E-01  5.262857503228E-01  4.798060290706E-01
  4.360933807059E-01  3.950949312900E-01  3.567513082798E-01  3.209969075943E-01
  2.877602050046E-01  2.569641109135E-01  2.285263670855E-01  2.023599833536E-01
  1.783737117921E-01  1.564725552930E-01  1.365583069411E-01  1.185301160468E-01
  1.022850761854E-01  8.771883011019E-02  7.472618596923E-02  6.320173887224E-02
  5.304049153641E-02  4.413846749797E-02  3.639331022284E-02  2.970486139224E-02
  2.397571168892E-02  1.911171757177E-02  1.502247780844E-02  1.162176393889E-02
  8.827899369970E-03  6.564082448244E-03  4.758649622017E-03  3.345275673891E-03
  2.263108971073E-03  1.456840726191E-03  8.767083677400E-04  4.784342642871E-04
  2.231022050799E-04  7.697518423793E-05  1.125913680698E-05  1.818302206895E-06
  2.884881334026E-05  7.651789801781E-05  1.325767055144E-04  1.879552101787E-04
  2.363478755471E-04  2.737987712308E-04  2.982946123155E-04  3.093737358774E-04
  3.077583483162E-04  2.950164858960E-04  2.732590531416E-04  2.448760718737E-04
  2.123149276280E-04  1.779019864439E-04  1.437075248975E-04  1.114525241575E-04
  8.245457972848E-05  5.760902548738E-05  3.740041199796E-05  2.193875590326E-05
  1.101452048364E-05  4.166116037595E-06  7.538274737420E-07  3.447527537738E-08
  1.231769477139E-06  3.598184633347E-06  6.465214305475E-06  9.279993562638E-06
  1.162743801117E-05  1.323816629359E-05  1.398348063244E-05  1.385951501849E-05
  1.296327328866E-05  1.146363595957E-05  9.570500797048E-06  7.505044069063E-06
  5.473674471830E-06  3.647646157309E-06  2.149562975704E-06  1.047215191798E-06
  3.544186928614E-07  3.784804915751E-08  2.833134120332E-08  2.347522657792E-07
  5.586077426851E-07  9.073965256786E-07  1.205340806140E-06  1.400420916278E-06
  1.467268575670E-06  1.406043048305E-06  1.237933318566E-06  9.983235000697E-07
  7.288815935257E-07  4.698611782068E-07  2.537470298636E-07  1.010613854398E-07
  1.873237790899E-08  0.000000000000E+00  0.000000000000E+00  0.000000000000E+00
  0.000000000000E+00  0.000000000000E+00  0.000000000000E+00  0.000000000000E+00
  0.000000000000E+00  0.000000000000E+00  0.000000000000E+00  0.000000000000E+00
  0.000000000000E+00  0.000000000000E+00  0.000000000000E+00  0.000000000000E+00
  0.000000000000E+00  0.000000000000E+00  0.000000000000E+00  0.000000000000E+00
  0.000000000000E+00  0.000000000000E+00
</data>
</radfunc>
</pseudocore-charge>
<semilocal-potentials set="scalar_relativistic">
<slps n="5" l="s" rc="1.95835025430" eref="-1.23751765929">
<radfunc>
<data npts="290">
  1.288238561488E+02  1.286634126775E+02  1.281859208510E+02  1.273963592066E+02
  1.262535197935E+02  1.248218045259E+02  1.230388500283E+02  1.210525461432E+02
  1.188867044646E+02  1.164469612340E+02  1.138019778446E+02  1.110458669281E+02
  1.078692710833E+02  1.047191661790E+02  1.017304854641E+02  9.846881607724E+01
  9.493299952467E+01  9.178026368459E+01  8.844651673023E+01  8.494143019283E+01
  8.127824929974E+01  7.824505643802E+01  7.513156406929E+01  7.194925848473E+01
  6.871078189808E+01  6.542975083508E+01  6.212053982783E+01  5.962908280981E+01
  5.713653017243E+01  5.464928257020E+01  5.217369012711E+01  4.971598840096E+01
  4.728223682131E+01  4.487826087684E+01  4.250959919247E+01  4.018145646345E+01
  3.789866301280E+01  3.566564151919E+01  3.420660004874E+01  3.277253277647E+01
  3.136441980442E+01  2.998314939503E+01  2.862951766471E+01  2.730422886817E+01
  2.600789623907E+01  2.474104334854E+01  2.350410593956E+01  2.229743419257E+01
  2.112129537605E+01  1.997587683458E+01  1.886128926715E+01  1.777757024851E+01
  1.672468794782E+01  1.570254500035E+01  1.471098249010E+01  1.374978400381E+01
  1.281867971956E+01  1.191735049618E+01  1.104543193305E+01  1.020251837300E+01
  9.388166824558E+00  8.601900782903E+00  7.843213932568E+00  7.111573717756E+00
  6.406424769560E+00  5.727192182195E+00  5.073284633262E+00  4.755639203208E+00
  4.444097345698E+00  4.138581821296E+00  3.839014891577E+00  3.545318398295E+00
  3.257413840232E+00  2.975222447775E+00  2.698665255310E+00  2.427663171461E+00
  2.162137047287E+00  1.902007742488E+00  1.647196189724E+00  1.397623457123E+00
  1.153210809078E+00  9.138797654381E-01  6.795521591759E-01  4.501501926526E-01
  2.255964925753E-01  5.814163761851E-03 -2.092731581827E-01 -4.197412551778E-01
 -6.256652758367E-01 -8.271196854132E-01 -1.024178216404E+00 -1.216913819712E+00
 -1.405398616269E+00 -1.589703849029E+00 -1.769899835250E+00 -1.946055918966E+00
 -2.118240423605E+00 -2.286520604671E+00 -2.450962602448E+00 -2.611631394685E+00
 -2.768590749242E+00 -2.921903176682E+00 -3.071629882816E+00 -3.217830721231E+00
 -3.360564145837E+00 -3.499887163503E+00 -3.635855286863E+00 -3.768522487401E+00
 -3.897941148944E+00 -4.024162021721E+00 -4.147234177168E+00 -4.267204963667E+00
 -4.384119963471E+00 -4.498022951043E+00 -4.608955853091E+00 -4.716958710599E+00
 -4.822069643157E+00 -4.924324815924E+00 -5.023758409586E+00 -5.120402593669E+00
 -5.214287503540E+00 -5.305441221586E+00 -5.393889762845E+00 -5.479657065590E+00
 -5.562764987252E+00 -5.643233306105E+00 -5.721079729182E+00 -5.796319906880E+00
 -5.868967454741E+00 -5.939033982953E+00 -6.006529134114E+00 -6.071460629891E+00
 -6.133834327234E+00 -6.193654284872E+00 -6.250922840888E+00 -6.305640702244E+00
 -6.357807047175E+00 -6.407419641426E+00 -6.454474969383E+00 -6.498968381108E+00
 -6.540894256332E+00 -6.580246186367E+00 -6.617017174836E+00 -6.651199857937E+00
 -6.682786744735E+00 -6.711770477728E+00 -6.738144113499E+00 -6.761901422858E+00
 -6.783037209298E+00 -6.801547643977E+00 -6.817430614661E+00 -6.830686085244E+00
 -6.841316461546E+00 -6.849326958025E+00 -6.854725958969E+00 -6.857525366576E+00