<?xml version="1.0" encoding="UTF-8" ?>
<psml version="1.1" energy_unit="hartree" length_unit="bohr"
 uuid="fc68ce30-be44-11e7-4646-19206fed4070"
 xmlns="http://esl.cecam.org/PSML/ns/1.1">
<provenance creator="ONCVPSP-3.3.0+psml-3.3.0-73 (scalar-relativistic)"
 date="2017-10-31">
<annotation action="semilocal-pseudopotential-generation"
 action-cont="projectors-generation" />
<input-file name="oncvpsp-input">
<![CDATA[# atsym z nc nv iexc psfile
Ru 44 6 4 4 upf
# n l f
1 0 2.0
2 0 2.0
2 1 6.0
3 0 2.0
3 1 6.0
3 2 10.0
4 0 2.0
4 1 6.0
4 2 7.0
5 0 1.0
# lmax
2
# l rc ep ncon nbas qcut
0 1.35 0.0 4 8 8.7
1 1.4 0.0 4 8 9.0
2 1.3 0.0 4 7 9.0
# lloc lpopt rc5 dvloc0
4 5 1.3 0.0
# l nproj debl
0 2 1.0
1 2 2.5
2 2 1.5
# icmod fcfact
3 7.0 1.24
# epsh1 epsh2 depsh
-12.0 12.0 0.02
# rlmax drl
6.0 0.01
 0
]]>
</input-file>
</provenance>
<pseudo-atom-spec atomic-label="Ru" atomic-number="44" z-pseudo="16"
 flavor="Hamann&apos;s oncvpsp" relativity="scalar" spin-dft="no"
 core-corrections="yes">
<annotation pseudo-energy="-94.9195046517" />
<exchange-correlation>
<annotation oncvpsp-xc-code="4" oncvpsp-xc-type="GGA -- Perdew-Burke-Ernzerhof" />
<libxc-info number-of-functionals="2">
<functional name="Perdew, Burke &amp; Ernzerhof (GGA)" type="exchange" id="101" />
<functional name="Perdew, Burke &amp; Ernzerhof (GGA)" type="correlation"
 id="130" />
</libxc-info>
</exchange-correlation>
<valence-configuration total-valence-charge="16">
<shell n="4" l="s" occupation="2" />
<shell n="4" l="p" occupation="6" />
<shell n="4" l="d" occupation="7" />
<shell n="5" l="s" occupation="1" />
</valence-configuration>
</pseudo-atom-spec>
<grid npts="457">
<annotation type="sampled from oncvpsp log grid"
 recipe="r(i:1..N) = r1*exp(a*(i-1)) + r=0; resampled"
 recipe-cont="r1: scale; a: step" scale="0.113636363636E-04"
 step="0.119285708653E-01" delta="0.500000000000E-02" rmax="44.1701864667" />
<grid-data>
  0.000000000000E+00  5.043815794335E-03  1.007462622473E-02  1.511354584145E-02
  2.012327525563E-02  2.524226985489E-02  3.055037921081E-02  3.567494135815E-02
  4.067699906245E-02  4.583044039319E-02  5.102448653004E-02  5.613358028248E-02
  6.175424878552E-02  6.713213057154E-02  7.297834632768E-02  7.839296543135E-02
  8.420932150924E-02  8.938460611162E-02  9.487795016675E-02  1.007089007765E-01
  1.068982063566E-01  1.121224214091E-01  1.176019487239E-01  1.233492656496E-01
  1.293774593142E-01  1.357002564259E-01  1.423320545300E-01  1.475177418904E-01
  1.528923631736E-01  1.584628019468E-01  1.642361925710E-01  1.702199293389E-01
  1.764216759446E-01  1.828493752993E-01  1.895112597039E-01  1.964158613929E-01
  2.035720234618E-01  2.109889111930E-01  2.160830274648E-01  2.213001360800E-01
  2.266432065655E-01  2.321152801448E-01  2.377194714686E-01  2.434589703877E-01
  2.493370437688E-01  2.553570373535E-01  2.615223776634E-01  2.678365739497E-01
  2.743032201911E-01  2.809259971394E-01  2.877086744144E-01  2.946551126494E-01
  3.017692656892E-01  3.090551828400E-01  3.165170111745E-01  3.241589978923E-01
  3.319854927375E-01  3.400009504741E-01  3.482099334224E-01  3.566171140549E-01
  3.652272776566E-01  3.740453250484E-01  3.830762753764E-01  3.923252689690E-01
  4.017975702630E-01  4.114985707995E-01  4.214337922928E-01  4.264909978004E-01
  4.316088897740E-01  4.367881964512E-01  4.420296548087E-01  4.473340106664E-01
  4.527020187944E-01  4.581344430199E-01  4.636320563361E-01  4.691956410122E-01
  4.748259887043E-01  4.805239005688E-01  4.862901873756E-01  4.921256696241E-01
  4.980311776596E-01  5.040075517915E-01  5.100556424130E-01  5.161763101220E-01
  5.223704258434E-01  5.286388709535E-01  5.349825374050E-01  5.414023278538E-01
  5.478991557881E-01  5.544739456575E-01  5.611276330054E-01  5.678611646015E-01
  5.746754985767E-01  5.815716045596E-01  5.885504638144E-01  5.956130693801E-01
  6.027604262127E-01  6.099935513272E-01  6.173134739432E-01  6.247212356305E-01
  6.322178904580E-01  6.398045051435E-01  6.474821592053E-01  6.552519451157E-01
  6.631149684571E-01  6.710723480786E-01  6.791252162555E-01  6.872747188506E-01
  6.955220154768E-01  7.038682796625E-01  7.123146990185E-01  7.208624754067E-01
  7.295128251116E-01  7.382669790129E-01  7.471261827611E-01  7.560916969542E-01
  7.651647973177E-01  7.743467748855E-01  7.836389361841E-01  7.930426034183E-01
  8.025591146593E-01  8.121898240353E-01  8.219361019237E-01  8.317993351468E-01
  8.417809271685E-01  8.518822982945E-01  8.621048858741E-01  8.724501445046E-01
  8.829195462386E-01  8.935145807935E-01  9.042367557630E-01  9.150875968322E-01
  9.260686479942E-01  9.371814717701E-01  9.484276494313E-01  9.598087812245E-01
  9.713264865992E-01  9.829824044384E-01  9.947781932916E-01  1.006715531611E+00
  1.018796117990E+00  1.031021671406E+00  1.043393931463E+00  1.055914658641E+00
  1.068585634544E+00  1.081408662159E+00  1.094385566105E+00  1.107518192898E+00
  1.120808411213E+00  1.134258112148E+00  1.147869209493E+00  1.161643640007E+00
  1.175583363687E+00  1.189690364052E+00  1.203966648420E+00  1.218414248201E+00
  1.233035219180E+00  1.247831641810E+00  1.262805621511E+00  1.277959288970E+00
  1.293294800437E+00  1.308814338043E+00  1.324520110099E+00  1.340414351420E+00
  1.356499323637E+00  1.372777315521E+00  1.389250643307E+00  1.405921651027E+00
  1.422792710839E+00  1.439866223369E+00  1.457144618050E+00  1.474630353466E+00
  1.492325917708E+00  1.510233828720E+00  1.528356634665E+00  1.546696914281E+00
  1.565257277252E+00  1.584040364579E+00  1.603048848954E+00  1.622285435142E+00
  1.641752860363E+00  1.661453894688E+00  1.681391341424E+00  1.701568037521E+00
  1.721986853971E+00  1.742650696219E+00  1.763562504574E+00  1.784725254629E+00
  1.806141957684E+00  1.827815661176E+00  1.849749449110E+00  1.871946442500E+00
  1.894409799810E+00  1.917142717408E+00  1.940148430016E+00  1.963430211177E+00
  1.986991373711E+00  2.010835270195E+00  2.034965293438E+00  2.059384876959E+00
  2.084097495482E+00  2.109106665428E+00  2.134415945413E+00  2.160028936758E+00
  2.185949283999E+00  2.212180675407E+00  2.238726843512E+00  2.265591565634E+00
  2.292778664422E+00  2.320292008395E+00  2.348135512496E+00  2.376313138646E+00
  2.404828896309E+00  2.433686843065E+00  2.462891085182E+00  2.492445778204E+00
  2.522355127543E+00  2.552623389073E+00  2.583254869742E+00  2.614253928179E+00
  2.645624975317E+00  2.677372475021E+00  2.709500944721E+00  2.742014956058E+00
  2.774919135530E+00  2.808218165157E+00  2.841916783139E+00  2.876019784536E+00
  2.910532021951E+00  2.945458406214E+00  2.980803907089E+00  3.016573553974E+00
  3.052772436622E+00  3.089405705861E+00  3.126478574331E+00  3.163996317223E+00
  3.201964273030E+00  3.240387844306E+00  3.279272498438E+00  3.318623768419E+00
  3.358447253640E+00  3.398748620684E+00  3.439533604132E+00  3.480808007382E+00
  3.522577703470E+00  3.564848635912E+00  3.607626819543E+00  3.650918341377E+00
  3.694729361474E+00  3.739066113812E+00  3.783934907177E+00  3.829342126064E+00
  3.875294231576E+00  3.921797762355E+00  3.968859335503E+00  4.016485647530E+00
  4.064683475300E+00  4.113459677003E+00  4.162821193128E+00  4.212775047445E+00
  4.263328348014E+00  4.314488288191E+00  4.366262147649E+00  4.418657293421E+00
  4.471681180942E+00  4.525341355113E+00  4.579645451374E+00  4.634601196791E+00
  4.690216411152E+00  4.746499008086E+00  4.803456996183E+00  4.861098480137E+00
  4.919431661899E+00  4.978464841842E+00  5.038206419944E+00  5.098664896983E+00
  5.159848875747E+00  5.221767062256E+00  5.284428267003E+00  5.347841406207E+00
  5.412015503082E+00  5.476959689119E+00  5.542683205388E+00  5.609195403853E+00
  5.676505748699E+00  5.744623817683E+00  5.813559303495E+00  5.883322015137E+00
  5.953921879319E+00  6.025368941871E+00  6.097673369173E+00  6.170845449603E+00
  6.244895594999E+00  6.319834342139E+00  6.395672354244E+00  6.472420422495E+00
  6.550089467565E+00  6.628690541176E+00  6.708234827670E+00  6.788733645602E+00
  6.870198449349E+00  6.952640830742E+00  7.036072520710E+00  7.120505390959E+00
  7.205951455650E+00  7.292422873118E+00  7.379931947596E+00  7.468491130967E+00
  7.558113024538E+00  7.648810380833E+00  7.740596105403E+00  7.833483258668E+00
  7.927485057772E+00  8.022614878465E+00  8.118886257007E+00  8.216312892091E+00
  8.314908646796E+00  8.414687550557E+00  8.515663801164E+00  8.617851766778E+00
  8.721265987979E+00  8.825921179835E+00  8.931832233993E+00  9.039014220801E+00
  9.147482391451E+00  9.257252180148E+00  9.368339206310E+00  9.480759276786E+00
  9.594528388107E+00  9.709662728764E+00  9.826178681509E+00  9.944092825688E+00
  1.006342193960E+01  1.018418300287E+01  1.030639319891E+01  1.043006991729E+01
  1.055523075630E+01  1.068189352538E+01  1.081007624768E+01  1.093979716265E+01
  1.107107472860E+01  1.120392762535E+01  1.133837475685E+01  1.147443525393E+01
  1.161212847698E+01  1.175147401870E+01  1.189249170693E+01  1.203520160741E+01
  1.217962402670E+01  1.232577951502E+01  1.247368886920E+01  1.262337313563E+01
  1.277485361326E+01  1.292815185662E+01  1.308328967890E+01  1.324028915504E+01
  1.339917262491E+01  1.355996269640E+01  1.372268224876E+01  1.388735443575E+01
  1.405400268898E+01  1.422265072124E+01  1.439332252990E+01  1.456604240026E+01
  1.474083490906E+01  1.491772492797E+01  1.509673762710E+01  1.527789847863E+01
  1.546123326037E+01  1.564676805950E+01  1.583452927621E+01  1.602454362753E+01
  1.621683815106E+01  1.641144020887E+01  1.660837749138E+01  1.680767802127E+01
  1.700937015753E+01  1.721348259942E+01  1.742004439061E+01  1.762908492330E+01
  1.784063394238E+01  1.805472154969E+01  1.827137820828E+01  1.849063474678E+01
  1.871252236374E+01  1.893707263211E+01  1.916431750369E+01  1.939428931374E+01
  1.962702078550E+01  1.986254503493E+01  2.010089557535E+01  2.034210632225E+01
  2.058621159812E+01  2.083324613730E+01  2.108324509094E+01  2.133624403203E+01
  2.159227896042E+01  2.185138630794E+01  2.211360294364E+01  2.237896617896E+01
  2.264751377311E+01  2.291928393839E+01  2.319431534565E+01  2.347264712980E+01
  2.375431889535E+01  2.403937072210E+01  2.432784317076E+01  2.461977728881E+01
  2.491521461628E+01  2.521419719167E+01  2.551676755797E+01  2.582296876867E+01
  2.613284439389E+01  2.644643852662E+01  2.676379578894E+01  2.708496133841E+01
  2.740998087447E+01  2.773890064496E+01  2.807176745270E+01  2.840862866213E+01
  2.874953220608E+01  2.909452659255E+01  2.944366091166E+01  2.979698484260E+01
  3.015454866071E+01  3.051640324464E+01  3.088260008358E+01  3.125319128458E+01
  3.162822958000E+01  3.200776833496E+01  3.239186155498E+01  3.278056389364E+01
  3.317393066036E+01  3.357201782828E+01  3.397488204222E+01  3.438258062673E+01
  3.479517159425E+01  3.521271365338E+01  3.563526621722E+01  3.606288941183E+01
  3.649564408477E+01  3.693359181379E+01  3.737679491555E+01  3.782531645454E+01
  3.827922025199E+01  3.873857089502E+01  3.920343374576E+01  3.967387495071E+01
  4.014996145012E+01  4.063176098752E+01  4.111934211937E+01  4.161277422480E+01
  4.211212751550E+01  4.261747304568E+01  4.312888272223E+01  4.364642931490E+01
  4.417018646668E+01
</grid-data>
</grid>
<valence-charge total-charge="16" is-unscreening-charge="yes"
 rescaled-to-z-pseudo="no">
<radfunc>
<data npts="457">
  1.068797267756E-01  1.077457330628E-01  1.103358395135E-01  1.146614387721E-01
  1.206846695619E-01  1.286207996389E-01  1.387619867924E-01  1.504112273292E-01
  1.635562989888E-01  1.789479479875E-01  1.963774103658E-01  2.154185487136E-01
  2.385647311838E-01  2.628945799101E-01  2.917995579566E-01  3.208864568389E-01
  3.546513695383E-01  3.869233197549E-01  4.235115480528E-01  4.650201104353E-01
  5.121432785563E-01  5.544172523685E-01  6.012576240063E-01  6.531843712315E-01
  7.107803772395E-01  7.746992711847E-01  8.456741525919E-01  9.040267788200E-01
  9.671920181369E-01  1.035587274194E+00  1.109667059229E+00  1.189926006357E+00
  1.276902002153E+00  1.371179404804E+00  1.473392299151E+00  1.584227722609E+00
  1.704428774691E+00  1.834797497066E+00  1.927782507015E+00  2.025940392841E+00
  2.129555314374E+00  2.238924241621E+00  2.354356948426E+00  2.476175885136E+00
  2.604715907679E+00  2.740323837712E+00  2.883357825514E+00  3.034186484233E+00
  3.193187760813E+00  3.360747505582E+00  3.537257699107E+00  3.723114291534E+00
  3.918714606415E+00  4.124454257991E+00  4.340723528308E+00  4.567903148463E+00
  4.806359426970E+00  5.056438667995E+00  5.318460823186E+00  5.592712323538E+00
  5.879438042407E+00  6.178832347929E+00  6.491029213196E+00  6.816091366029E+00
  7.153998477660E+00  7.504634411695E+00  7.867773581760E+00  8.053927914981E+00
  8.243066499019E+00  8.435123803120E+00  8.630024629446E+00  8.827683614236E+00
  9.028004725993E+00  9.230880762972E+00  9.436192852476E+00  9.643809954727E+00
  9.853588374380E+00  1.006537128300E+01  1.027898825615E+01  1.049425482894E+01
  1.071097207438E+01  1.092892620893E+01  1.114788823017E+01  1.136761359161E+01
  1.158784192008E+01  1.180829678147E+01  1.202868550050E+01  1.224869904089E+01
  1.246801195225E+01  1.268628239010E+01  1.290315221575E+01  1.311824718280E+01
  1.333117721693E+01  1.354153679571E+01  1.374890543506E+01  1.395284828878E+01
  1.415291686720E+01  1.434864988081E+01  1.453957421413E+01  1.472520603457E+01
  1.490505204019E+01  1.507861084980E+01  1.524537453741E+01  1.540483031244E+01
  1.555646234562E+01  1.569975373922E+01  1.583418863900E+01  1.595925448332E+01
  1.607444438358E+01  1.617925962804E+01  1.627321229939E+01  1.635582799431E+01
  1.642664863143E+01  1.648523533192E+01  1.653117135492E+01  1.656406506812E+01
  1.658355293150E+01  1.658930247094E+01  1.658101521603E+01  1.655842957537E+01
  1.652132362106E+01  1.646951775298E+01  1.640287721280E+01  1.632131441714E+01
  1.622479107909E+01  1.611332008797E+01  1.598696711749E+01  1.584585193408E+01
  1.569014937864E+01  1.552008999698E+01  1.533596029719E+01  1.513810261478E+01
  1.492691457023E+01  1.470284810736E+01  1.446640810512E+01  1.421815055994E+01
  1.395868034060E+01  1.368864852238E+01  1.340874931238E+01  1.311971658293E+01
  1.282232003487E+01  1.251736101739E+01  1.220566803583E+01  1.188809198283E+01
  1.156550113263E+01  1.123877594116E+01  1.090880369833E+01  1.057647308067E+01
  1.024266865481E+01  9.908265383241E+00  9.574123184579E+00  9.241081600247E+00
  8.909954618935E+00  8.581525708611E+00  8.256543103851E+00  7.935715393538E+00
  7.619707450704E+00  7.309136742541E+00  7.004570054446E+00  6.706520657452E+00
  6.415445943803E+00  6.131745550715E+00  5.855759868212E+00  5.587768568097E+00
  5.327989598097E+00  5.076580609239E+00  4.833643160016E+00  4.599227577527E+00
  4.373336244300E+00  4.155933416997E+00  3.946955134713E+00  3.746312119505E+00
  3.553892163003E+00  3.369562453957E+00  3.193171835511E+00  3.024552982713E+00
  2.863524492191E+00  2.709892877331E+00  2.563454463586E+00  2.423997179824E+00
  2.291302242758E+00  2.165145732625E+00  2.045300059254E+00  1.931535318604E+00
  1.823620540669E+00  1.721324830409E+00  1.624418404005E+00  1.532673523344E+00
  1.445865332108E+00  1.363772597291E+00  1.286178360292E+00  1.212870502079E+00
  1.143642226830E+00  1.078292469352E+00  1.016626230693E+00  9.584548471265E-01
  9.035961974429E-01  8.518748534307E-01  8.031221783959E-01  7.571763784330E-01
  7.138825110321E-01  6.730924554378E-01  6.346648489960E-01  5.984649935237E-01
  5.643647355249E-01  5.322423238550E-01  5.019822482093E-01  4.734750615818E-01
  4.466171896057E-01  4.213107294638E-01  3.974632408240E-01  3.749875310400E-01
  3.538014366415E-01  3.338276029296E-01  3.149932633013E-01  2.972300197343E-01
  2.804736256917E-01  2.646637725338E-01  2.497438803757E-01  2.356608941796E-01
  2.223650857401E-01  2.098098620991E-01  1.979515808128E-01  1.867493723940E-01
  1.761649701601E-01  1.661625476364E-01  1.567085635897E-01  1.477716147043E-01
  1.393222958558E-01  1.313330678875E-01  1.237781327562E-01  1.166333158733E-01
  1.098759554438E-01  1.034847985764E-01  9.743990392193E-02  9.172255058345E-02
  8.631515302703E-02  8.120118172011E-02  7.636508921736E-02  7.179224141434E-02
  6.746885369072E-02  6.338193166815E-02  5.951921631357E-02  5.586913312504E-02
  5.242074514573E-02  4.916370955991E-02  4.608823763473E-02  4.318505778132E-02
  4.044538151906E-02  3.786087213706E-02  3.542361585739E-02  3.312609531479E-02
  3.096116517725E-02  2.892202974204E-02  2.700222235077E-02  2.519558647619E-02
  2.349625834233E-02  2.189865094753E-02  2.039743936840E-02  1.898754723074E-02
  1.766413423707E-02  1.642258465690E-02  1.525849668151E-02  1.416767255910E-02
  1.314610943034E-02  1.218999079082E-02  1.129567851303E-02  1.045970536673E-02
  9.678767981792E-03  8.949720203646E-03  8.269566796258E-03  7.635457452933E-03
  7.044681079773E-03  6.494660321169E-03  5.982946300826E-03  5.507213555666E-03
  5.065255143477E-03  4.654977908359E-03  4.274397890894E-03  3.921635872532E-03
  3.594913045892E-03  3.292546804641E-03  3.012946648274E-03  2.754610198470E-03
  2.516119324856E-03  2.296136378916E-03  2.093400535427E-03  1.906724241343E-03
  1.734989772341E-03  1.577145897408E-03  1.432204651915E-03  1.299238219494E-03
  1.177375922928E-03  1.065801323978E-03  9.637494317976E-04  8.705040192412E-04
  7.853950460261E-04  7.077961873451E-04  6.371224661719E-04  5.728279871722E-04
  5.144037698307E-04  4.613756781401E-04  4.133024439782E-04  3.697737811292E-04
  3.304085867828E-04  2.948532272737E-04  2.627799047975E-04  2.338851018579E-04
  2.078881002579E-04  1.845295715340E-04  1.635702358474E-04  1.447895864802E-04
  1.279846772293E-04  1.129689701411E-04  9.957124118376E-05  8.763454160041E-05
  7.701521282462E-05  6.758195296941E-05  5.921493301315E-05  5.180496090610E-05
  4.525269190536E-05  3.946788351485E-05  3.436869346231E-05  2.988101918713E-05
  2.593787734359E-05  2.247882184533E-05  1.944939899040E-05  1.680063821401E-05
  1.448857702013E-05  1.247381864507E-05  1.072112100730E-05  9.199015500196E-06
  7.879454188482E-06  6.737483976361E-06  5.750946326197E-06  4.900201121637E-06
  4.167873288574E-06  3.538620811539E-06  2.998922811782E-06  2.536886386484E-06
  2.142070945812E-06  1.805328825548E-06  1.518660997432E-06  1.275086746551E-06
  1.068526234698E-06  8.936949199557E-07  7.460088554761E-07  6.214999438439E-07
  5.167402771947E-07  4.287747468699E-07  3.550611594473E-07  2.934171481170E-07
  2.419732192445E-07  1.991313232896E-07  1.635283868050E-07  1.340042878137E-07
  1.095738003163E-07  8.940207489545E-08  7.278326127837E-08  5.912191526272E-08
  4.791686657902E-08  3.874725607641E-08  3.126048011209E-08  2.516180725436E-08
  2.020545744932E-08  1.618695673614E-08  1.293660152397E-08  1.031388546749E-08
  8.202759209067E-09  6.507608804783E-09  5.149852634715E-09  4.065069127710E-09
  3.200578819981E-09  2.513414224558E-09  1.968619820263E-09  1.537832275652E-09
  1.198097901090E-09  9.308903613802E-10  7.212969668069E-10  5.573464717506E-10
  4.294553109587E-10  3.299727377336E-10  2.528080425235E-10  1.878357774786E-10
  1.431986887104E-10  1.088430546396E-10  8.247994878984E-11  6.231130349478E-11
  4.692893316003E-11  3.523337948458E-11  2.636889090861E-11  1.967149273168E-11
  1.462764429402E-11  1.084143061450E-11  8.008611273290E-12  5.896160693345E-12
  4.326191323830E-12  3.163363177336E-12  2.305057107254E-12  1.673731437475E-12
  1.210997433208E-12  8.730431665815E-13  6.271114088651E-13  4.487984840856E-13
  3.199902315164E-13  2.272905825881E-13  1.608296149554E-13  1.133628333671E-13
  7.959310228191E-14  5.566214943391E-14  3.877071312294E-14  2.689590119909E-14
  1.858171814354E-14  1.278444240695E-14  8.758955195398E-15  5.975518269708E-15
  4.059097769580E-15  2.745312156241E-15  1.848585722542E-15  1.239225013352E-15
  8.269899967137E-16  5.493717968574E-16  3.632659603578E-16  2.390843887299E-16
  1.566107393361E-16  1.020965344320E-16  6.623608143335E-17  4.276093022124E-17
  2.746900737649E-17  1.755723251367E-17  1.116504093005E-17  7.063654534594E-18
  4.445664540092E-18  2.783267017814E-18  1.733231276159E-18  1.073529054856E-18
  6.613000831083E-19  4.051187534049E-19  2.467949553234E-19  1.494965550460E-19
  9.004042414146E-20  5.391696356545E-20  3.209701251233E-20  1.899435125572E-20
  1.117310778924E-20  6.532535841309E-21  3.795911934178E-21  2.192021367290E-21
  1.257868213884E-21  7.172227336031E-22  4.063201303018E-22  0.000000000000E+00
  0.000000000000E+00  0.000000000000E+00  0.000000000000E+00  0.000000000000E+00
  0.000000000000E+00
</data>
</radfunc>
</valence-charge>
<pseudocore-charge matching-radius="0.687274718851"
 number-of-continuous-derivatives="4">
<annotation model-charge-form="Teter function with specified parameters" />
<radfunc>
<data npts="290">
  1.161584196283E+02  1.161455650717E+02  1.161071418415E+02  1.160430499035E+02
  1.159539634093E+02  1.158368652508E+02  1.156876927985E+02  1.155169704800E+02
  1.153251301176E+02  1.151015724864E+02  1.148497894816E+02  1.145763647992E+02
  1.142462578611E+02  1.139018955995E+02  1.134961969941E+02  1.130916043477E+02
  1.126264253193E+02  1.121861979929E+02  1.116921278047E+02  1.111379038711E+02
  1.105165492877E+02  1.099659871352E+02  1.093632636486E+02  1.087037623874E+02
  1.079825265621E+02  1.071942487695E+02  1.063332641284E+02  1.056362009973E+02
  1.048921850206E+02  1.040984318668E+02  1.032520503370E+02  1.023500479710E+02
  1.013893387443E+02  1.003667531813E+02  9.927905123923E+01  9.812293834972E+01
  9.689508503403E+01  9.559215053589E+01  9.468017267276E+01  9.373237302751E+01
  9.274779224815E+01  9.172549113960E+01  9.066455665137E+01  8.956410842807E+01
  8.842330594855E+01  8.724135627663E+01  8.601752244375E+01  8.475113247979E+01
  8.344158910366E+01  8.208838007907E+01  8.069108923404E+01  7.924940813391E+01
  7.776314838770E+01  7.623225455607E+01  7.465681761555E+01  7.303708891861E+01
  7.137349457170E+01  6.966665013409E+01  6.791737551908E+01  6.612670995514E+01
  6.429592683961E+01  6.242654828923E+01  6.052035916340E+01  5.857942030441E+01
  5.660608070802E+01  5.460298830502E+01  5.257309900276E+01  5.154911520074E+01
  5.051968360489E+01  4.948526298934E+01  4.844633219898E+01  4.740339011723E+01
  4.635695557677E+01  4.530756720947E+01  4.425578323184E+01  4.320218116225E+01
  4.214735746635E+01  4.109192712680E+01  4.003652313411E+01  3.898179589475E+01
  3.792841255349E+01  3.687705622665E+01  3.582842514341E+01  3.478323169235E+01
  3.374220137095E+01  3.270607163586E+01  3.167559065223E+01  3.065151594085E+01
  2.963461292232E+01  2.862565335777E+01  2.762541368671E+01  2.663467326263E+01
  2.565421248818E+01  2.468481085211E+01  2.372724487113E+01  2.278228594075E+01
  2.185069809977E+01  2.093323571435E+01  2.003064108837E+01  1.914364200787E+01
  1.827294922829E+01  1.741925391460E+01  1.658322504506E+01  1.576550679091E+01
  1.496671588496E+01  1.418743899346E+01  1.342823010645E+01  1.268960796302E+01
  1.197205352859E+01  1.127600754249E+01  1.060186815475E+01  9.949988671636E+00
  9.320675430338E+00  8.714185823158E+00  8.130726492255E+00  7.570451715749E+00
  7.033462005991E+00  6.519802940377E+00  6.029464244486E+00  5.562379146424E+00
  5.118424020117E+00  4.697418333827E+00  4.299124918434E+00  3.923250567949E+00
  3.569446982371E+00  3.237312060327E+00  2.926391545936E+00  2.636181031114E+00
  2.366128310954E+00  2.115636086088E+00  1.884065001938E+00  1.670737010588E+00
  1.474939036788E+00  1.295926925208E+00  1.132929641769E+00  9.851536975757E-01
  8.517877598589E-01  7.320074104431E-01  6.249800086440E-01  5.298696123279E-01
  4.458419081522E-01  3.720690998898E-01  3.077347022791E-01  2.520381871327E-01
  2.041994285455E-01  1.634628950333E-01  1.291015383528E-01  1.004203316384E-01
  7.675941334919E-02  5.749679834719E-02  4.205062318592E-02  2.988089932702E-02
  2.049075542544E-02  1.342715792584E-02  8.281107847406E-03  4.687320635826E-03
  2.323405137741E-03  9.085668909095E-04  2.018697951431E-04  9.859405714033E-08
  1.352722130330E-04  4.718646246967E-04  9.037953224749E-04  1.351255469618E-03
  1.757438180496E-03  2.085242048067E-03  2.314015869945E-03  2.436409515739E-03
  2.455391052946E-03  2.381483707342E-03  2.230268144281E-03  2.020186154779E-03
  1.770671412607E-03  1.500621888474E-03  1.227217161175E-03  9.650726784312E-04
  7.257124287508E-04  5.173319180662E-04  3.448151994676E-04  2.099633276672E-04
  1.118872759392E-04  4.751624479613E-05  1.217248455487E-05  1.662073655267E-07
  5.368716437704E-06  2.172825161285E-05  4.370085471633E-05  6.657732078290E-05
  8.669648571317E-05  1.015441408351E-04  1.097452008127E-04  1.109638697335E-04
  1.057320212473E-04  9.522952059120E-05  8.104160269006E-05  6.491767701630E-05
  4.855321921231E-05  3.341205195165E-05  2.060076736760E-05  1.080085167454E-05
  4.257839143124E-06  8.211406829191E-07  2.359143033772E-08  1.186653968231E-06
  3.535849777429E-06  6.311431961566E-06  8.861419139073E-06  1.070756023554E-05
  1.157911962610E-05  1.141399406527E-05  1.033100411189E-05  8.580699983578E-06
  6.484262667013E-06  4.370822092934E-06  2.522725324113E-06  1.136158347195E-06
  3.014374034635E-07  3.758391033860E-09  0.000000000000E+00  0.000000000000E+00
  0.000000000000E+00  0.000000000000E+00  0.000000000000E+00  0.000000000000E+00
  0.000000000000E+00  0.000000000000E+00  0.000000000000E+00  0.000000000000E+00
  0.000000000000E+00  0.000000000000E+00  0.000000000000E+00  0.000000000000E+00
  0.000000000000E+00  0.000000000000E+00  0.000000000000E+00  0.000000000000E+00
  0.000000000000E+00  0.000000000000E+00  0.000000000000E+00  0.000000000000E+00
  0.000000000000E+00  0.000000000000E+00  0.000000000000E+00  0.000000000000E+00
  0.000000000000E+00  0.000000000000E+00  0.000000000000E+00  0.000000000000E+00
  0.000000000000E+00  0.000000000000E+00  0.000000000000E+00  0.000000000000E+00
  0.000000000000E+00  0.000000000000E+00  0.000000000000E+00  0.000000000000E+00
  0.000000000000E+00  0.000000000000E+00  0.000000000000E+00  0.000000000000E+00
  0.000000000000E+00  0.000000000000E+00  0.000000000000E+00  0.000000000000E+00
  0.000000000000E+00  0.000000000000E+00  0.000000000000E+00  0.000000000000E+00
  0.000000000000E+00  0.000000000000E+00  0.000000000000E+00  0.000000000000E+00
  0.000000000000E+00  0.000000000000E+00  0.000000000000E+00  0.000000000000E+00
  0.000000000000E+00  0.000000000000E+00  0.000000000000E+00  0.000000000000E+00
  0.000000000000E+00  0.000000000000E+00  0.000000000000E+00  0.000000000000E+00
  0.000000000000E+00  0.000000000000E+00  0.000000000000E+00  0.000000000000E+00
  0.000000000000E+00  0.000000000000E+00
</data>
</radfunc>
</pseudocore-charge>
<semilocal-potentials set="scalar_relativistic">
<slps n="4" l="s" rc="1.35649932364" eref="-2.80659293749">
<radfunc>
<data npts="290">
  6.481029432868E+01  6.474486353734E+01  6.454980184606E+01  6.422614330942E+01
  6.377979029441E+01  6.319924176717E+01  6.246961514449E+01  6.164795190694E+01
  6.074124237438E+01  5.970614071689E+01  5.856718375204E+01  5.736137098720E+01
  5.594691830440E+01  5.451745060226E+01  5.289076088955E+01  5.132714480177E+01
  4.959771259615E+01  4.802457381864E+01  4.632827435590E+01  4.450727188605E+01
  4.256169246032E+01  4.091683254412E+01  3.919551736181E+01  3.740068003654E+01
  3.553621074910E+01  3.360697040427E+01  3.161877985307E+01  3.009297444581E+01
  2.854095049334E+01  2.696612426111E+01  2.537213704365E+01  2.376282502222E+01
  2.214218530156E+01  2.051433876152E+01  1.888349047552E+01  1.725388853872E+01
  1.562978221219E+01  1.401538031911E+01  1.294654674630E+01  1.188505853346E+01
  1.083208250068E+01  9.788752672724E+00  8.756166170249E+00  7.735379475282E+00
  6.727405100022E+00  5.733208682582E+00  4.753706527416E+00  3.789763602407E+00
  2.842191998832E+00  1.911749854837E+00  9.991407378209E-01  1.050134761150E-01
 -7.700375740966E-01 -1.625471844780E+00 -2.460801476670E+00 -3.275589869214E+00
 -4.069449887133E+00 -4.842041752821E+00 -5.593070655444E+00 -6.322284108633E+00
 -7.029469089430E+00 -7.714448991549E+00 -8.377080426126E+00 -9.017249903138E+00
 -9.634870426460E+00 -1.022987803541E+01 -1.080222832543E+01 -1.107989759267E+01
 -1.135189298063E+01 -1.161821290196E+01 -1.187885635115E+01 -1.213382280223E+01
 -1.238311210866E+01 -1.262672440556E+01 -1.286466001445E+01 -1.309691935098E+01
 -1.332350283580E+01 -1.354441080897E+01 -1.375964344824E+01 -1.396920069150E+01
 -1.417308216380E+01 -1.437128710931E+01 -1.456381432855E+01 -1.475066212143E+01
 -1.493182823640E+01 -1.510730982618E+01 -1.527710341061E+01 -1.544120484705E+01
 -1.559960930877E+01 -1.575231127190E+01 -1.589930451154E+01 -1.604058210721E+01
 -1.617613645856E+01 -1.630595931144E+01 -1.643004179492E+01 -1.654837446958E+01
 -1.666094738729E+01 -1.676775016264E+01 -1.686877205595E+01 -1.696400206779E+01
 -1.705342904442E+01 -1.713704179354E+01 -1.721482920952E+01 -1.728678040657E+01
 -1.735288485853E+01 -1.741313254322E+01 -1.746751408915E+01 -1.751602092219E+01
 -1.755864540947E+01 -1.759538099776E+01 -1.762622234358E+01 -1.765116543248E+01
 -1.767020768521E+01 -1.768334804891E+01 -1.769058707232E+01 -1.769192696466E+01
 -1.768737163865E+01 -1.767692673951E+01 -1.766059966251E+01 -1.763839956285E+01
 -1.761033736262E+01 -1.757642576062E+01 -1.753667925118E+01 -1.749111415930E+01
 -1.743974869928E+01 -1.738260306477E+01 -1.731969955800E+01 -1.725106276635E+01
 -1.717671979432E+01 -1.709670055922E+01 -1.701103815920E+01 -1.691976932248E+01
 -1.682293494738E+01 -1.672058074339E+01 -1.661275798439E+01 -1.649952438630E+01
 -1.638094512238E+01 -1.625709399044E+01 -1.612805474721E+01 -1.599392262563E+01
 -1.585480605086E+01 -1.571082857022E+01 -1.556213101077E+01 -1.540887387508E+01
 -1.525123998205E+01 -1.508943735300E+01 -1.492370233530E+01 -1.475430294563E+01
 -1.458154240135E+01 -1.440576279327E+01 -1.422734883410E+01 -1.404673159569E+01