<?xml version="1.0" encoding="UTF-8" ?>
<psml version="1.1" energy_unit="hartree" length_unit="bohr"
 uuid="31bde650-be41-11e7-78a7-66593edf4b14"
 xmlns="http://esl.cecam.org/PSML/ns/1.1">
<provenance creator="ONCVPSP-3.3.0+psml-3.3.0-73 (scalar-relativistic)"
 date="2017-10-31">
<annotation action="semilocal-pseudopotential-generation"
 action-cont="projectors-generation" />
<input-file name="oncvpsp-input">
<![CDATA[# atsym z nc nv iexc psfile
N 7 1 2 4 upf
# n l f
1 0 2.0
2 0 2.0
2 1 3.0
# lmax
1
# l rc ep ncon nbas qcut
0 1.2 0.0 4 8 8.8
1 1.35 0.0 4 8 9.0
# lloc lpopt rc5 dvloc0
4 5 1.2 0.0
# l nproj debl
0 2 1.0
1 2 1.0
# icmod fcfact
3 4 1.5
# epsh1 epsh2 depsh
-12.0 12.0 0.02
# rlmax drl
6.0 0.01
 0
]]>
</input-file>
</provenance>
<pseudo-atom-spec atomic-label="N" atomic-number="7" z-pseudo="5"
 flavor="Hamann&apos;s oncvpsp" relativity="scalar" spin-dft="no"
 core-corrections="yes">
<annotation pseudo-energy="-9.66903026492" />
<exchange-correlation>
<annotation oncvpsp-xc-code="4" oncvpsp-xc-type="GGA -- Perdew-Burke-Ernzerhof" />
<libxc-info number-of-functionals="2">
<functional name="Perdew, Burke &amp; Ernzerhof (GGA)" type="exchange" id="101" />
<functional name="Perdew, Burke &amp; Ernzerhof (GGA)" type="correlation"
 id="130" />
</libxc-info>
</exchange-correlation>
<valence-configuration total-valence-charge="5">
<shell n="2" l="s" occupation="2" />
<shell n="2" l="p" occupation="3" />
</valence-configuration>
</pseudo-atom-spec>
<grid npts="457">
<annotation type="sampled from oncvpsp log grid"
 recipe="r(i:1..N) = r1*exp(a*(i-1)) + r=0; resampled"
 recipe-cont="r1: scale; a: step" scale="0.714285714286E-04"
 step="0.119285708653E-01" delta="0.500000000000E-02" rmax="44.2267415588" />
<grid-data>
  0.000000000000E+00  5.050273848726E-03  1.008752568157E-02  1.513289708366E-02
  2.014904090835E-02  2.527458982023E-02  3.058949562954E-02  3.572061921814E-02
  4.072908151017E-02  4.588912125880E-02  5.108981780357E-02  5.620545319168E-02
  6.183331834590E-02  6.721808592128E-02  7.307178711718E-02  7.849333904832E-02
  8.431714233393E-02  8.949905332213E-02  9.499943100341E-02  1.008378475076E-01
  1.070350778164E-01  1.122659819048E-01  1.177525251550E-01  1.235072008914E-01
  1.295431129985E-01  1.358740057603E-01  1.425142951564E-01  1.477066222222E-01
  1.530881251201E-01  1.586656962307E-01  1.644464790501E-01  1.704378773384E-01
  1.766475646022E-01  1.830834939228E-01  1.897539081417E-01  1.966673504179E-01
  2.038326751695E-01  2.112590594141E-01  2.163596981446E-01  2.215834866966E-01
  2.269333983994E-01  2.324124783703E-01  2.380238452481E-01  2.437706929678E-01
  2.496562925788E-01  2.556839941068E-01  2.618572284605E-01  2.681795093845E-01
  2.746544354591E-01  2.812856921488E-01  2.880770539000E-01  2.950323862894E-01
  3.021556482240E-01  3.094508941947E-01  3.169222765841E-01  3.245740480300E-01
  3.324105638456E-01  3.404362844991E-01  3.486557781520E-01  3.570737232597E-01
  3.656949112341E-01  3.745242491710E-01  3.835667626430E-01  3.928275985602E-01
  4.023120280998E-01  4.120254497063E-01  4.219733921640E-01  4.270370728700E-01
  4.321615177444E-01  4.373474559573E-01  4.425956254288E-01  4.479067729340E-01
  4.532816542092E-01  4.587210340597E-01  4.642256864684E-01  4.697963947060E-01
  4.754339514425E-01  4.811391588598E-01  4.869128287661E-01  4.927557827113E-01
  4.986688521039E-01  5.046528783291E-01  5.107087128690E-01  5.168372174235E-01
  5.230392640326E-01  5.293157352009E-01  5.356675240234E-01  5.420955343116E-01
  5.486006807234E-01  5.551838888921E-01  5.618460955588E-01  5.685882487055E-01
  5.754113076899E-01  5.823162433822E-01  5.893040383028E-01  5.963756867624E-01
  6.035321950036E-01  6.107745813436E-01  6.181038763198E-01  6.255211228356E-01
  6.330273763096E-01  6.406237048253E-01  6.483111892832E-01  6.560909235546E-01
  6.639640146373E-01  6.719315828129E-01  6.799947618067E-01  6.881546989484E-01
  6.964125553358E-01  7.047695059998E-01  7.132267400718E-01  7.217854609526E-01
  7.304468864841E-01  7.392122491219E-01  7.480827961113E-01  7.570597896647E-01
  7.661445071407E-01  7.753382412263E-01  7.846423001211E-01  7.940580077225E-01
  8.035867038152E-01  8.132297442610E-01  8.229885011921E-01  8.328643632064E-01
  8.428587355649E-01  8.529730403917E-01  8.632087168764E-01  8.735672214789E-01
  8.840500281366E-01  8.946586284743E-01  9.053945320160E-01  9.162592664001E-01
  9.272543775969E-01  9.383814301281E-01  9.496420072896E-01  9.610377113771E-01
  9.725701639136E-01  9.842410058806E-01  9.960518979512E-01  1.008004520727E+00
  1.020100574975E+00  1.032341781875E+00  1.044729883258E+00  1.057266641857E+00
  1.069953841559E+00  1.082793287658E+00  1.095786807109E+00  1.108936248795E+00
  1.122243483780E+00  1.135710405586E+00  1.149338930453E+00  1.163130997618E+00
  1.177088569590E+00  1.191213632425E+00  1.205508196014E+00  1.219974294366E+00
  1.234613985898E+00  1.249429353729E+00  1.264422505974E+00  1.279595576046E+00
  1.294950722958E+00  1.310490131634E+00  1.326216013213E+00  1.342130605372E+00
  1.358236172636E+00  1.374535006708E+00  1.391029426788E+00  1.407721779910E+00
  1.424614441269E+00  1.441709814564E+00  1.459010332339E+00  1.476518456327E+00
  1.494236677803E+00  1.512167517936E+00  1.530313528152E+00  1.548677290489E+00
  1.567261417975E+00  1.586068554991E+00  1.605101377651E+00  1.624362594183E+00
  1.643854945313E+00  1.663581204657E+00  1.683544179112E+00  1.703746709262E+00
  1.724191669773E+00  1.744881969810E+00  1.765820553448E+00  1.787010400089E+00
  1.808454524890E+00  1.830155979189E+00  1.852117850939E+00  1.874343265151E+00
  1.896835384332E+00  1.919597408944E+00  1.942632577852E+00  1.965944168786E+00
  1.989535498811E+00  2.013409924797E+00  2.037570843895E+00  2.062021694021E+00
  2.086765954350E+00  2.111807145802E+00  2.137148831552E+00  2.162794617530E+00
  2.188748152940E+00  2.215013130776E+00  2.241593288345E+00  2.268492407805E+00
  2.295714316699E+00  2.323262888499E+00  2.351142043161E+00  2.379355747679E+00
  2.407908016651E+00  2.436802912851E+00  2.466044547805E+00  2.495637082379E+00
  2.525584727368E+00  2.555891744096E+00  2.586562445025E+00  2.617601194365E+00
  2.649012408698E+00  2.680800557602E+00  2.712970164293E+00  2.745525806265E+00
  2.778472115940E+00  2.811813781331E+00  2.845555546707E+00  2.879702213268E+00
  2.914258639827E+00  2.949229743505E+00  2.984620500427E+00  3.020435946432E+00
  3.056681177789E+00  3.093361351923E+00  3.130481688146E+00  3.168047468404E+00
  3.206064038025E+00  3.244536806481E+00  3.283471248159E+00  3.322872903137E+00
  3.362747377974E+00  3.403100346510E+00  3.443937550668E+00  3.485264801276E+00
  3.527087978891E+00  3.569413034638E+00  3.612245991054E+00  3.655592942946E+00
  3.699460058262E+00  3.743853578961E+00  3.788779821908E+00  3.834245179771E+00
  3.880256121928E+00  3.926819195392E+00  3.973941025736E+00  4.021628318045E+00
  4.069887857862E+00  4.118726512156E+00  4.168151230302E+00  4.218169045066E+00
  4.268787073606E+00  4.320012518490E+00  4.371852668711E+00  4.424314900736E+00
  4.477406679545E+00  4.531135559699E+00  4.585509186416E+00  4.640535296653E+00
  4.696221720213E+00  4.752576380855E+00  4.809607297425E+00  4.867322584994E+00
  4.925730456014E+00  4.984839221487E+00  5.044657292144E+00  5.105193179650E+00
  5.166455497806E+00  5.228452963780E+00  5.291194399345E+00  5.354688732137E+00
  5.418944996923E+00  5.483972336886E+00  5.549780004928E+00  5.616377364988E+00
  5.683773893367E+00  5.751979180088E+00  5.821002930249E+00  5.890854965412E+00
  5.961545224997E+00  6.033083767697E+00  6.105480772909E+00  6.178746542184E+00
  6.252891500690E+00  6.327926198699E+00  6.403861313083E+00  6.480707648840E+00
  6.558476140626E+00  6.637177854314E+00  6.716823988565E+00  6.797425876428E+00
  6.878994986945E+00  6.961542926789E+00  7.045081441910E+00  7.129622419213E+00
  7.215177888244E+00  7.301760022902E+00  7.389381143177E+00  7.478053716895E+00
  7.567790361498E+00  7.658603845836E+00  7.750507091986E+00  7.843513177090E+00
  7.937635335215E+00  8.032886959238E+00  8.129281602749E+00  8.226832981982E+00
  8.325554977765E+00  8.425461637498E+00  8.526567177148E+00  8.628885983274E+00
  8.732432615074E+00  8.837221806454E+00  8.943268468132E+00  9.050587689749E+00
  9.159194742026E+00  9.269105078931E+00  9.380334339878E+00  9.492898351956E+00
  9.606813132180E+00  9.722094889766E+00  9.838760028443E+00  9.956825148785E+00
  1.007630705057E+01  1.019722273518E+01  1.031958940800E+01  1.044342448089E+01
  1.056874557467E+01  1.069557052156E+01  1.082391736782E+01  1.095380437623E+01
  1.108525002875E+01  1.121827302909E+01  1.135289230544E+01  1.148912701311E+01
  1.162699653727E+01  1.176652049571E+01  1.190771874166E+01  1.205061136656E+01
  1.219521870296E+01  1.234156132740E+01  1.248966006332E+01  1.263953598408E+01
  1.279121041589E+01  1.294470494088E+01  1.310004140017E+01  1.325724189698E+01
  1.341632879974E+01  1.357732474534E+01  1.374025264228E+01  1.390513567399E+01
  1.407199730208E+01  1.424086126970E+01  1.441175160494E+01  1.458469262420E+01
  1.475970893569E+01  1.493682544292E+01  1.511606734823E+01  1.529746015641E+01
  1.548102967829E+01  1.566680203443E+01  1.585480365884E+01  1.604506130275E+01
  1.623760203838E+01  1.643245326284E+01  1.662964270199E+01  1.682919841442E+01
  1.703114879539E+01  1.723552258093E+01  1.744234885191E+01  1.765165703813E+01
  1.786347692259E+01  1.807783864566E+01  1.829477270940E+01  1.851430998192E+01
  1.873648170170E+01  1.896131948212E+01  1.918885531591E+01  1.941912157970E+01
  1.965215103865E+01  1.988797685112E+01  2.012663257333E+01  2.036815216421E+01
  2.061256999018E+01  2.085992083006E+01  2.111023988002E+01  2.136356275858E+01
  2.161992551169E+01  2.187936461783E+01  2.214191699324E+01  2.240761999716E+01
  2.267651143713E+01  2.294862957437E+01  2.322401312927E+01  2.350270128682E+01
  2.378473370226E+01  2.407015050669E+01  2.435899231277E+01  2.465130022052E+01
  2.494711582316E+01  2.524648121304E+01  2.554943898760E+01  2.585603225545E+01
  2.616630464252E+01  2.648030029823E+01  2.679806390180E+01  2.711964066863E+01
  2.744507635665E+01  2.777441727293E+01  2.810771028020E+01  2.844500280357E+01
  2.878634283721E+01  2.913177895126E+01  2.948136029867E+01  2.983513662226E+01
  3.019315826172E+01  3.055547616086E+01  3.092214187479E+01  3.129320757729E+01
  3.166872606822E+01  3.204875078104E+01  3.243333579041E+01  3.282253581989E+01
  3.321640624973E+01  3.361500312473E+01  3.401838316223E+01  3.442660376017E+01
  3.483972300530E+01  3.525779968136E+01  3.568089327754E+01  3.610906399687E+01
  3.654237276483E+01  3.698088123801E+01  3.742465181286E+01  3.787374763462E+01
  3.832823260623E+01  3.878817139751E+01  3.925362945428E+01  3.972467300773E+01
  4.020136908382E+01  4.068378551283E+01  4.117199093898E+01  4.166605483025E+01
  4.216604748821E+01  4.267204005807E+01  4.318410453877E+01  4.370231379323E+01
  4.422674155875E+01
</grid-data>
</grid>
<valence-charge total-charge="5" is-unscreening-charge="yes"
 rescaled-to-z-pseudo="no">
<radfunc>
<data npts="457">
  1.020151375236E+00  1.021320815369E+00  1.024815859801E+00  1.030644128302E+00
  1.038741883305E+00  1.049379777738E+00  1.062921518763E+00  1.078405805814E+00
  1.095787955367E+00  1.116020493722E+00  1.138777242548E+00  1.163453626508E+00
  1.193194920798E+00  1.224161369510E+00  1.260565615232E+00  1.296786479767E+00
  1.338327033965E+00  1.377536256978E+00  1.421421057660E+00  1.470497161942E+00
  1.525325842158E+00  1.573737402616E+00  1.626550981794E+00  1.684117347038E+00
  1.746804646798E+00  1.814996800547E+00  1.889091143047E+00  1.948780074703E+00
  2.012192372425E+00  2.079502902661E+00  2.150885548819E+00  2.226511363196E+00
  2.306546390985E+00  2.391149130146E+00  2.480467589925E+00  2.574635910569E+00
  2.673770507629E+00  2.777965706480E+00  2.850275139145E+00  2.924876494596E+00
  3.001774762365E+00  3.080966910904E+00  3.162441001454E+00  3.246175251749E+00
  3.332137051310E+00  3.420281930997E+00  3.510552490590E+00  3.602877289401E+00
  3.697169706321E+00  3.793326777285E+00  3.891228019856E+00  3.990734256574E+00
  4.091686450781E+00  4.193904570872E+00  4.297186501309E+00  4.401307021242E+00
  4.506016874107E+00  4.611041954242E+00  4.716082639058E+00  4.820813297823E+00
  4.924882010355E+00  5.027910530873E+00  5.129494533826E+00  5.229204179442E+00
  5.326585037006E+00  5.421159403245E+00  5.512428051475E+00  5.556661372229E+00
  5.599872444244E+00  5.641993876685E+00  5.682957437865E+00  5.722694168175E+00
  5.761134501375E+00  5.798208394289E+00  5.833845464858E+00  5.867975138522E+00
  5.900526802797E+00  5.931429969874E+00  5.960614447049E+00  5.988010514659E+00
  6.013549111219E+00  6.037162025325E+00  6.058782093871E+00  6.078343406025E+00
  6.095781512364E+00  6.111033638502E+00  6.124038902456E+00  6.134738534957E+00
  6.143076101834E+00  6.148997727537E+00  6.152452318833E+00  6.153391787613E+00
  6.151771271750E+00  6.147549352885E+00  6.140688269970E+00  6.131154127417E+00
  6.118917096647E+00  6.103951609843E+00  6.086236544717E+00  6.065755399118E+00
  6.042496454318E+00  6.016452925874E+00  5.987623100991E+00  5.956010461374E+00
  5.921623790621E+00  5.884477265297E+00  5.844590528889E+00  5.801988747945E+00
  5.756702649788E+00  5.708768541287E+00  5.658228308267E+00  5.605129395220E+00
  5.549524765081E+00  5.491472838893E+00  5.431037415276E+00  5.368287569648E+00
  5.303297533217E+00  5.236146551766E+00  5.166918724277E+00  5.095702821442E+00
  5.022592084069E+00  4.947684001372E+00  4.871080069085E+00  4.792885527264E+00
  4.713209077620E+00  4.632162580129E+00  4.549860728651E+00  4.466420705245E+00
  4.381961812900E+00  4.296605086405E+00  4.210472881238E+00  4.123688440466E+00
  4.036375439940E+00  3.948657512355E+00  3.860657751201E+00  3.772498196167E+00
  3.684299302155E+00  3.596179394867E+00  3.508254116713E+00  3.420635867768E+00
  3.333433247462E+00  3.246750503790E+00  3.160686997826E+00  3.075336692386E+00
  2.990787674636E+00  2.907121723204E+00  2.824413931009E+00  2.742732395325E+00
  2.662137986627E+00  2.582684207327E+00  2.504417150700E+00  2.427375568852E+00
  2.351591056699E+00  2.277088356359E+00  2.203885783295E+00  2.131995959135E+00
  2.061427429925E+00  1.992186778422E+00  1.924279572497E+00  1.857710762281E+00
  1.792485428301E+00  1.728609315683E+00  1.666089301057E+00  1.604933743967E+00
  1.545152704433E+00  1.486757698448E+00  1.429760051142E+00  1.374168592067E+00
  1.319989348625E+00  1.267226022291E+00  1.215879887626E+00  1.165949909573E+00
  1.117432831033E+00  1.070323265945E+00  1.024613794560E+00  9.802950604298E-01
  9.373558687358E-01  8.957832855644E-01  8.555627377712E-01  8.166781130740E-01
  7.791118600371E-01  7.428450876271E-01  7.078576640222E-01  6.741283144045E-01
  6.416347174486E-01  6.103536002570E-01  5.802608315090E-01  5.513315126081E-01
  5.235400666219E-01  4.968603248434E-01  4.712656108077E-01  4.467288216227E-01
  4.232225064855E-01  4.007189422793E-01  3.791902061560E-01  3.586082450304E-01
  3.389449419256E-01  3.201721791244E-01  3.022618980946E-01  2.851861561722E-01
  2.689171799947E-01  2.534274156942E-01  2.386895758647E-01  2.246766833329E-01
  2.113621117702E-01  1.987196231894E-01  1.867234023818E-01  1.753480883537E-01
  1.645688028301E-01  1.543611758983E-01  1.447013688696E-01  1.355660944402E-01
  1.269326342408E-01  1.187788538618E-01  1.110832154503E-01  1.038247879732E-01
  9.698325524572E-02  9.053892182569E-02  8.447271687537E-02  7.876619609479E-02
  7.340154183081E-02  6.836156146698E-02  6.362968420006E-02  5.918995630863E-02
  5.502703501938E-02  5.112618107590E-02  4.747325011401E-02  4.405468294651E-02
  4.085749485846E-02  3.786926401282E-02  3.507811906310E-02  3.247272606849E-02
  3.004227480302E-02  2.777646454772E-02  2.566548945149E-02  2.370002354257E-02
  2.187120546893E-02  2.017062304162E-02  1.859029765140E-02  1.712266862431E-02
  1.576057757779E-02  1.449725283432E-02  1.332629394540E-02  1.224165637392E-02
  1.123763637899E-02  1.030885614253E-02  9.450249173137E-03  8.657046018268E-03
  7.924760312064E-03  7.249175182101E-03  6.626330034849E-03  6.052507736085E-03
  5.524222199199E-03  5.038206391301E-03  4.591400764122E-03  4.180942114044E-03
  3.804152873161E-03  3.458530830980E-03  3.141739284407E-03  2.851597611761E-03
  2.586072264995E-03  2.343268172823E-03  2.121420546254E-03  1.918887076934E-03
  1.734140517823E-03  1.565761635018E-03  1.412432518910E-03  1.272930242481E-03
  1.146120854192E-03  1.030953692744E-03  9.264560108934E-04  8.317278955202E-04
  7.459374712380E-04  6.683163749813E-04  5.981554892459E-04  5.348009219189E-04
  4.776502209570E-04  4.261488125113E-04  3.797866514755E-04  3.380950738159E-04
  3.006438404470E-04  2.670383628155E-04  2.369171007648E-04  2.099491236501E-04
  1.858318260706E-04  1.642887899695E-04  1.450677852255E-04  1.279389012215E-04
  1.126928022221E-04  9.913909972474E-05  8.710483526701E-05  7.643306747790E-05
  6.698155744888E-05  5.862154677898E-05  5.123662291055E-05  4.472166662460E-05
  3.898187680441E-05  3.393186780598E-05  2.949483499341E-05  2.560178420785E-05
  2.219082114104E-05  1.920649677828E-05  1.659920526310E-05  1.432463071564E-05
  1.234323971090E-05  1.061981629054E-05  9.123036544243E-06  7.825079953061E-06
  6.701274838789E-06  5.729775409638E-06  4.891268033815E-06  4.168704509174E-06
  3.547060228698E-06  3.013115268516E-06  2.555256547299E-06  2.163299323305E-06
  1.828326408068E-06  1.542543583772E-06  1.299149814646E-06  1.092220941478E-06
  9.166056423041E-07  7.678325318652E-07  6.420273572653E-07  5.358393277032E-07
  4.463756921198E-07  3.711437502469E-07  3.079995499277E-07  2.551025868251E-07
  2.108758818362E-07  1.739708668372E-07  1.432365609000E-07  1.176925670128E-07
  9.650546373275E-08  7.896820725701E-08  6.448219727671E-08  5.254169483035E-08
  4.272031236211E-08  3.465932547532E-08  2.805758261210E-08  2.266281324492E-08
  1.826415728908E-08  1.468575849014E-08  1.178128265345E-08  9.429237908109E-09
  7.528988872122E-09  5.997369740581E-09  4.765813081171E-09  3.777921609155E-09
  2.987419540885E-09  2.356428396362E-09  1.854019436971E-09  1.455001376791E-09
  1.138907681079E-09  8.891527432346E-10  6.923305853146E-10  5.376335244513E-10
  4.163715500093E-10  3.215760203253E-10  2.476737644162E-10  1.902198093531E-10
  1.456787897098E-10  1.112466689899E-10  8.470574766788E-11  6.430707827201E-11
  4.867538126771E-11  3.673237981821E-11  2.763516747071E-11  2.072680860817E-11
  1.549686302003E-11  1.154993705268E-11  8.580706562984E-12  6.354141758079E-12
  4.689899977470E-12  3.450038052146E-12  2.529424582567E-12  1.848146519106E-12
  1.345699528709E-12  9.764151500224E-13  0.000000000000E+00  0.000000000000E+00
  0.000000000000E+00  0.000000000000E+00  0.000000000000E+00  0.000000000000E+00
  0.000000000000E+00  0.000000000000E+00  0.000000000000E+00  0.000000000000E+00
  0.000000000000E+00  0.000000000000E+00  0.000000000000E+00  0.000000000000E+00
  0.000000000000E+00  0.000000000000E+00  0.000000000000E+00  0.000000000000E+00
  0.000000000000E+00  0.000000000000E+00  0.000000000000E+00  0.000000000000E+00
  0.000000000000E+00  0.000000000000E+00  0.000000000000E+00  0.000000000000E+00
  0.000000000000E+00  0.000000000000E+00  0.000000000000E+00  0.000000000000E+00
  0.000000000000E+00  0.000000000000E+00  0.000000000000E+00  0.000000000000E+00
  0.000000000000E+00  0.000000000000E+00  0.000000000000E+00  0.000000000000E+00
  0.000000000000E+00  0.000000000000E+00  0.000000000000E+00  0.000000000000E+00
  0.000000000000E+00  0.000000000000E+00  0.000000000000E+00  0.000000000000E+00
  0.000000000000E+00  0.000000000000E+00  0.000000000000E+00  0.000000000000E+00
  0.000000000000E+00  0.000000000000E+00  0.000000000000E+00  0.000000000000E+00
  0.000000000000E+00  0.000000000000E+00  0.000000000000E+00  0.000000000000E+00
  0.000000000000E+00  0.000000000000E+00  0.000000000000E+00  0.000000000000E+00
  0.000000000000E+00  0.000000000000E+00  0.000000000000E+00  0.000000000000E+00
  0.000000000000E+00  0.000000000000E+00  0.000000000000E+00  0.000000000000E+00
  0.000000000000E+00  0.000000000000E+00  0.000000000000E+00  0.000000000000E+00
  0.000000000000E+00  0.000000000000E+00  0.000000000000E+00  0.000000000000E+00
  0.000000000000E+00
</data>
</radfunc>
</valence-charge>
<pseudocore-charge matching-radius="0.453281654209"
 number-of-continuous-derivatives="4">
<annotation model-charge-form="Teter function with specified parameters" />
<radfunc>
<data npts="290">
  2.399825933725E+01  2.399407650996E+01  2.398157521290E+01  2.396072735936E+01
  2.393175956492E+01  2.389370159248E+01  2.384524918900E+01  2.378983850428E+01
  2.372762624247E+01  2.365519865695E+01  2.357371742422E+01  2.348534157502E+01
  2.337879640643E+01  2.326782698747E+01  2.313732418978E+01  2.300742758350E+01
  2.285838910247E+01  2.271765062787E+01  2.256005374764E+01  2.238371697284E+01
  2.218658578565E+01  2.201241424066E+01  2.182228159715E+01  2.161488700267E+01
  2.138885749693E+01  2.114275162964E+01  2.087506528701E+01  2.065920267621E+01
  2.042965168767E+01  2.018572866028E+01  1.992674431775E+01  1.965200896187E+01
  1.936083862646E+01  1.905256229281E+01  1.872653026774E+01  1.838212382354E+01
  1.801876619322E+01  1.763593500414E+01  1.736966808162E+01  1.709442821009E+01
  1.681011961136E+01  1.651666759415E+01  1.621402103453E+01  1.590215498422E+01
  1.558107339859E+01  1.525081197350E+01  1.491144107672E+01  1.456306875570E+01
  1.420584379954E+01  1.383995882795E+01  1.346565337535E+01  1.308321693240E+01
  1.269299190158E+01  1.229537641702E+01  1.189082697264E+01  1.147986079565E+01
  1.106305789618E+01  1.064106271702E+01  1.021458530157E+01  9.784401892378E+00
  9.351354867992E+00  8.916351922608E+00  8.480364390879E+00  8.044424620667E+00
  7.609622299091E+00  7.177099642938E+00  6.748045373636E+00  6.535201304536E+00
  6.323687410195E+00  6.113661887984E+00  5.905284231170E+00  5.698714884604E+00
  5.494114879329E+00  5.291645446427E+00  5.091467610619E+00  4.893741764241E+00
  4.698627222453E+00  4.506281760655E+00  4.316861135352E+00  4.130518589844E+00
  3.947404346363E+00  3.767665086501E+00  3.591443421961E+00  3.418877357930E+00
  3.250099751557E+00  3.085237768281E+00  2.924412338953E+00  2.767737620924E+00
  2.615320466476E+00  2.467259902175E+00  2.323646622896E+00  2.184562504447E+00
  2.050080138849E+00  1.920262396453E+00  1.795162019148E+00  1.674821248970E+00
  1.559271496440E+00  1.448533052911E+00  1.342614851131E+00  1.241514278106E+00
  1.145217044160E+00  1.053697111830E+00  9.669166879621E-01  8.848262819859E-01
  8.073648329254E-01  7.344599072168E-01  6.660279688394E-01  6.019747226621E-01
  5.421955311995E-01  4.865759043006E-01  4.349920604352E-01  3.873115574795E-01
  3.433939900137E-01  3.030917492690E-01  2.662508409634E-01  2.327117553725E-01
  2.023103830961E-01  1.748789691328E-01  1.502470970721E-01  1.282426944702E-01
  1.086930498264E-01  9.142583101831E-02  7.627009462367E-02  6.305727526196E-02
  5.162214394707E-02  4.180372447386E-02  3.344615707320E-02  2.639949897514E-02
  2.052045212429E-02  1.567300909710E-02  1.172900927621E-02  8.568598535000E-03
  6.080587063719E-03  4.162701509114E-03  2.721729278177E-03  1.673554644746E-03
  9.430881596807E-04  4.640927617323E-04  1.789118728747E-04  3.810659129105E-05
  1.081792340508E-08  3.021471817716E-05  1.009882795957E-04  1.906578322903E-04
  2.829492093371E-04  3.663117034011E-04  4.332370960277E-04  4.795877800094E-04
  5.039473573515E-04  5.070060829763E-04  4.909921585563E-04  4.591581970563E-04
  4.153302258277E-04  3.635244364903E-04  3.076345966639E-04  2.511906940708E-04
  1.971870756432E-04  1.479761632572E-04  1.052218618600E-04  6.990510697661E-05
  4.237269794935E-05  2.241968667391E-05  9.395175891361E-06  2.321441004828E-06
  1.681541163380E-08  1.213737010805E-06  4.664684124809E-06  9.230351883162E-06
  1.394623646139E-05  1.806569319501E-05  2.107939838905E-05  2.271285828294E-05
  2.290506656885E-05  2.177252620178E-05  1.956355874518E-05  1.660809212119E-05
  1.326794595591E-05  9.892057774645E-06  6.780180573888E-06  4.157427637562E-06
  2.160758363415E-06  8.372134189465E-07  1.525410165663E-07  7.917067822401E-09
  2.618343300093E-07  7.539696191428E-07  1.327944548770E-06  1.850343836959E-06
  2.224077699553E-06  2.395072392922E-06  2.352227792200E-06  2.121470598157E-06
  1.755444876466E-06  1.320832246870E-06  8.854335895036E-07  5.069683715322E-07
  2.250975763390E-07  5.753216627995E-08  3.590144001081E-10  0.000000000000E+00
  0.000000000000E+00  0.000000000000E+00  0.000000000000E+00  0.000000000000E+00
  0.000000000000E+00  0.000000000000E+00  0.000000000000E+00  0.000000000000E+00
  0.000000000000E+00  0.000000000000E+00  0.000000000000E+00  0.000000000000E+00
  0.000000000000E+00  0.000000000000E+00  0.000000000000E+00  0.000000000000E+00
  0.000000000000E+00  0.000000000000E+00  0.000000000000E+00  0.000000000000E+00
  0.000000000000E+00  0.000000000000E+00  0.000000000000E+00  0.000000000000E+00
  0.000000000000E+00  0.000000000000E+00  0.000000000000E+00  0.000000000000E+00
  0.000000000000E+00  0.000000000000E+00  0.000000000000E+00  0.000000000000E+00
  0.000000000000E+00  0.000000000000E+00  0.000000000000E+00  0.000000000000E+00
  0.000000000000E+00  0.000000000000E+00  0.000000000000E+00  0.000000000000E+00
  0.000000000000E+00  0.000000000000E+00  0.000000000000E+00  0.000000000000E+00
  0.000000000000E+00  0.000000000000E+00  0.000000000000E+00  0.000000000000E+00
  0.000000000000E+00  0.000000000000E+00  0.000000000000E+00  0.000000000000E+00
  0.000000000000E+00  0.000000000000E+00  0.000000000000E+00  0.000000000000E+00
  0.000000000000E+00  0.000000000000E+00  0.000000000000E+00  0.000000000000E+00
  0.000000000000E+00  0.000000000000E+00  0.000000000000E+00  0.000000000000E+00
  0.000000000000E+00  0.000000000000E+00  0.000000000000E+00  0.000000000000E+00
  0.000000000000E+00  0.000000000000E+00  0.000000000000E+00  0.000000000000E+00
  0.000000000000E+00  0.000000000000E+00  0.000000000000E+00  0.000000000000E+00
  0.000000000000E+00  0.000000000000E+00  0.000000000000E+00  0.000000000000E+00
  0.000000000000E+00  0.000000000000E+00  0.000000000000E+00  0.000000000000E+00
  0.000000000000E+00  0.000000000000E+00  0.000000000000E+00  0.000000000000E+00
  0.000000000000E+00  0.000000000000E+00
</data>
</radfunc>
</pseudocore-charge>
<semilocal-potentials set="scalar_relativistic">
<slps n="2" l="s" rc="1.20550819601" eref="-0.682906561240">
<radfunc>
<data npts="290">
  4.736945447163E+00  4.734914683050E+00  4.728845560291E+00  4.718725132641E+00
  4.704664551843E+00  4.686194573587E+00  4.662684769166E+00  4.635805216174E+00
  4.605634573863E+00  4.570521071361E+00  4.531032802173E+00  4.488220731154E+00
  4.436631371913E+00  4.382928569719E+00  4.319810752002E+00  4.257027393039E+00
  4.185043459675E+00  4.117119269015E+00  4.041118137622E+00  3.956154883493E+00
  3.861267472887E+00  3.777515908406E+00  3.686180658293E+00  3.586662852390E+00
  3.478334609849E+00  3.360541715795E+00  3.232607443165E+00  3.129584408782E+00
  3.020169576622E+00  2.904064450052E+00  2.780971452166E+00  2.650596649913E+00
  2.512652902386E+00  2.366863464466E+00  2.212966074140E+00  2.050717547624E+00
  1.879898900585E+00  1.700321006057E+00  1.575658885850E+00  1.446999769426E+00
  1.314317952445E+00  1.177598094545E+00  1.036836240988E+00  8.920408791707E-01
  7.432340252846E-01  5.904523352984E-01  4.337482334960E-01  2.731910506267E-01
  1.088681624699E-01 -5.911388153233E-02 -2.306282514184E-01 -4.055267647113E-01
 -5.836388638813E-01 -7.647706593818E-01 -9.487040556079E-01 -1.135195978883E+00
 -1.323977727603E+00 -1.514754466169E+00 -1.707204885415E+00 -1.900981052651E+00
 -2.095708475986E+00 -2.290986406358E+00 -2.486388401700E+00 -2.681463175873E+00
 -2.875735754078E+00 -3.068708954162E+00 -3.259865210820E+00 -3.354595201984E+00
 -3.448668756904E+00 -3.542016478927E+00 -3.634568173088E+00 -3.726252946515E+00
 -3.816999314958E+00 -3.906735315403E+00 -3.995388624903E+00 -4.082886685636E+00
 -4.169156836335E+00 -4.254126450160E+00 -4.337723079074E+00 -4.419874604922E+00
 -4.500509397232E+00 -4.579556477897E+00 -4.656945692709E+00 -4.732607889787E+00
 -4.806475104744E+00 -4.878480752257E+00 -4.948559823607E+00 -5.016649089333E+00
 -5.082687305906E+00 -5.146615424796E+00 -5.208376801894E+00 -5.267917404636E+00
 -5.325186013502E+00 -5.380134414047E+00 -5.432717574874E+00 -5.482893806416E+00
 -5.530624894995E+00 -5.575876206234E+00 -5.618616751959E+00 -5.658819214860E+00
 -5.696459925855E+00 -5.731518790010E+00 -5.763979158143E+00 -5.793827643012E+00
 -5.821053880831E+00 -5.845650241071E+00 -5.867611489945E+00 -5.886934414003E+00
 -5.903617415422E+00 -5.917660086769E+00 -5.929062780881E+00 -5.937826186795E+00
 -5.943950926190E+00 -5.947437183345E+00 -5.948284381437E+00 -5.946490917028E+00
 -5.942053963611E+00 -5.934969354041E+00 -5.925231550712E+00 -5.912833711600E+00
 -5.897767859825E+00 -5.880025164267E+00 -5.859596338842E+00 -5.836472168452E+00
 -5.810644170070E+00 -5.782105397758E+00 -5.750851400574E+00 -5.716881341778E+00
 -5.680199286598E+00 -5.640815663394E+00 -5.598748899431E+00 -5.554027227300E+00
 -5.506690651102E+00 -5.456793052954E+00 -5.404404410011E+00 -5.349613080437E+00
 -5.292528103607E+00 -5.233281445927E+00 -5.172030109407E+00 -5.108958006211E+00
 -5.044277489583E+00 -4.978230420674E+00 -4.911088642810E+00 -4.843153730594E+00
 -4.774755882015E+00 -4.706251828390E+00 -4.638021650397E+00 -4.570464409516E+00
 -4.503992533312E+00 -4.439024930507E+00 -4.375978857383E+00 -4.315260609991E+00
 -4.257255175703E+00 -4.202314698531E+00 -4.150750319875E+00 -4.101253880808E+00
 -4.052276671583E+00 -4.003857120468E+00 -3.955997792056E+00 -3.908713866809E+00
 -3.862016822086E+00 -3.815918841639E+00 -3.770430901056E+00 -3.725562494065E+00