<?xml version="1.0" encoding="UTF-8" ?>
<psml version="1.1" energy_unit="hartree" length_unit="bohr"
 uuid="9518f510-be63-11e7-559f-6f16fe7be100"
 xmlns="http://esl.cecam.org/PSML/ns/1.1">
<provenance creator="ONCVPSP-3.3.0+psml-3.3.0-73 (scalar-relativistic)"
 date="2017-10-31">
<annotation action="semilocal-pseudopotential-generation"
 action-cont="projectors-generation" />
<input-file name="oncvpsp-input">
<![CDATA[# atsym z nc nv iexc psfile
Sr 38 6 3 4 upf
# n l f
1 0 2.0
2 0 2.0
2 1 6.0
3 0 2.0
3 1 6.0
3 2 10.0
4 0 2.0
4 1 6.0
5 0 2.0
# lmax
2
# l rc ep ncon nbas qcut
0 1.5 0.0 3 8 6.8
1 1.3 0.0 4 8 8.2
2 1.5 0.0 4 8 8.6
# lloc lpopt rc5 dvloc0
4 5 1.3 0.0
# l nproj debl
0 2 1.0
1 2 3.0
2 2 3.5
# icmod fcfact rcfact
3 6.0 1.35
# epsh1 epsh2 depsh
-12.0 12.0 0.02
# rlmax drl
6.0 0.01
 0
]]>
</input-file>
</provenance>
<pseudo-atom-spec atomic-label="Sr" atomic-number="38" z-pseudo="10"
 flavor="Hamann&apos;s oncvpsp" relativity="scalar" spin-dft="no"
 core-corrections="yes">
<annotation pseudo-energy="-30.8977885653" />
<exchange-correlation>
<annotation oncvpsp-xc-code="4" oncvpsp-xc-type="GGA -- Perdew-Burke-Ernzerhof" />
<libxc-info number-of-functionals="2">
<functional name="Perdew, Burke &amp; Ernzerhof (GGA)" type="exchange" id="101" />
<functional name="Perdew, Burke &amp; Ernzerhof (GGA)" type="correlation"
 id="130" />
</libxc-info>
</exchange-correlation>
<valence-configuration total-valence-charge="10">
<shell n="4" l="s" occupation="2" />
<shell n="4" l="p" occupation="6" />
<shell n="5" l="s" occupation="2" />
</valence-configuration>
</pseudo-atom-spec>
<grid npts="457">
<annotation type="sampled from oncvpsp log grid"
 recipe="r(i:1..N) = r1*exp(a*(i-1)) + r=0; resampled"
 recipe-cont="r1: scale; a: step" scale="0.131578947368E-04"
 step="0.119285708653E-01" delta="0.500000000000E-02" rmax="44.3233076602" />
<grid-data>
  0.000000000000E+00  5.001285356115E-03  1.010955111220E-02  1.516593874179E-02
  2.019303497754E-02  2.532977517910E-02  3.065628572608E-02  3.579861277629E-02
  4.081801070727E-02  4.598931705399E-02  5.120136896821E-02  5.632817400049E-02
  6.196832721796E-02  6.736485206945E-02  7.323133442633E-02  7.866472394973E-02
  8.450124311626E-02  8.969446845692E-02  9.520685584117E-02  1.010580201333E-01
  1.072687816757E-01  1.125111070896E-01  1.180096298362E-01  1.237768705182E-01
  1.298259616315E-01  1.361706774698E-01  1.428254654891E-01  1.480291296502E-01
  1.534223826959E-01  1.590121320562E-01  1.648055368242E-01  1.708100169258E-01
  1.770332626221E-01  1.834832443594E-01  1.901682229770E-01  1.970967602872E-01
  2.042777300411E-01  2.117203292939E-01  2.168321049244E-01  2.220672992657E-01
  2.274288921392E-01  2.329199353110E-01  2.385435542291E-01  2.443029498024E-01
  2.502014002225E-01  2.562422628294E-01  2.624289760232E-01  2.687650612203E-01
  2.752541248584E-01  2.818998604490E-01  2.887060506796E-01  2.956765695673E-01
  3.028153846629E-01  3.101265593102E-01  3.176142549582E-01  3.252827335299E-01
  3.331363598482E-01  3.411796041204E-01  3.494170444823E-01  3.578533696043E-01
  3.664933813600E-01  3.753419975595E-01  3.844042547486E-01  3.936853110753E-01
  4.031904492259E-01  4.129250794320E-01  4.228947425498E-01  4.279694794604E-01
  4.331051132139E-01  4.383023745725E-01  4.435620030674E-01  4.488847471042E-01
  4.542713640694E-01  4.597226204382E-01  4.652392918835E-01  4.708221633861E-01
  4.764720293467E-01  4.821896936989E-01  4.879759700233E-01  4.938316816636E-01
  4.997576618435E-01  5.057547537857E-01  5.118238108311E-01  5.179656965611E-01
  5.241812849198E-01  5.304714603388E-01  5.368371178629E-01  5.432791632772E-01
  5.497985132366E-01  5.563960953954E-01  5.630728485402E-01  5.698297227226E-01
  5.766676793953E-01  5.835876915481E-01  5.905907438466E-01  5.976778327728E-01
  6.048499667661E-01  6.121081663673E-01  6.194534643637E-01  6.268869059360E-01
  6.344095488073E-01  6.420224633929E-01  6.497267329537E-01  6.575234537491E-01
  6.654137351941E-01  6.733987000164E-01  6.814794844166E-01  6.896572382296E-01
  6.979331250884E-01  7.063083225894E-01  7.147840224605E-01  7.233614307300E-01
  7.320417678988E-01  7.408262691136E-01  7.497161843429E-01  7.587127785551E-01
  7.678173318977E-01  7.770311398805E-01  7.863555135591E-01  7.957917797218E-01
  8.053412810784E-01  8.150053764514E-01  8.247854409688E-01  8.346828662604E-01
  8.446990606555E-01  8.548354493834E-01  8.650934747760E-01  8.754745964733E-01
  8.859802916310E-01  8.966120551306E-01  9.073713997921E-01  9.182598565896E-01
  9.292789748687E-01  9.404303225671E-01  9.517154864379E-01  9.631360722752E-01
  9.746937051425E-01  9.863900296042E-01  9.982267099595E-01  1.010205430479E+00
  1.022327895645E+00  1.034595830392E+00  1.047010980357E+00  1.059575112121E+00
  1.072290013467E+00  1.085157493629E+00  1.098179383552E+00  1.111357536155E+00
  1.124693826589E+00  1.138190152508E+00  1.151848434338E+00  1.165670615550E+00
  1.179658662936E+00  1.193814566892E+00  1.208140341694E+00  1.222638025795E+00
  1.237309682104E+00  1.252157398289E+00  1.267183287069E+00  1.282389486514E+00
  1.297778160352E+00  1.313351498276E+00  1.329111716255E+00  1.345061056850E+00
  1.361201789533E+00  1.377536211007E+00  1.394066645539E+00  1.410795445286E+00
  1.427724990629E+00  1.444857690517E+00  1.462195982803E+00  1.479742334596E+00
  1.497499242612E+00  1.515469233523E+00  1.533654864325E+00  1.552058722697E+00
  1.570683427369E+00  1.589531628498E+00  1.608606008040E+00  1.627909280136E+00
  1.647444191498E+00  1.667213521796E+00  1.687220084058E+00  1.707466725066E+00
  1.727956325767E+00  1.748691801676E+00  1.769676103296E+00  1.790912216536E+00
  1.812403163134E+00  1.834152001092E+00  1.856161825105E+00  1.878435767006E+00
  1.900976996210E+00  1.923788720165E+00  1.946874184807E+00  1.970236675025E+00
  1.993879515125E+00  2.017806069306E+00  2.042019742138E+00  2.066523979044E+00
  2.091322266792E+00  2.116418133994E+00  2.141815151602E+00  2.167516933421E+00
  2.193527136622E+00  2.219849462261E+00  2.246487655808E+00  2.273445507678E+00
  2.300726853770E+00  2.328335576016E+00  2.356275602928E+00  2.384550910163E+00
  2.413165521085E+00  2.442123507338E+00  2.471428989426E+00  2.501086137299E+00
  2.531099170947E+00  2.561472360998E+00  2.592210029330E+00  2.623316549682E+00
  2.654796348278E+00  2.686653904457E+00  2.718893751311E+00  2.751520476327E+00
  2.784538722043E+00  2.817953186707E+00  2.851768624948E+00  2.885989848447E+00
  2.920621726628E+00  2.955669187348E+00  2.991137217596E+00  3.027030864207E+00
  3.063355234578E+00  3.100115497393E+00  3.137316883361E+00  3.174964685962E+00
  3.213064262193E+00  3.251621033339E+00  3.290640485740E+00  3.330128171568E+00
  3.370089709627E+00  3.410530786143E+00  3.451457155576E+00  3.492874641443E+00
  3.534789137141E+00  3.577206606786E+00  3.620133086068E+00  3.663574683101E+00
  3.707537579298E+00  3.752028030249E+00  3.797052366612E+00  3.842616995012E+00
  3.888728398952E+00  3.935393139739E+00  3.982617857416E+00  4.030409271705E+00
  4.078774182966E+00  4.127719473161E+00  4.177252106839E+00  4.227379132121E+00
  4.278107681707E+00  4.329444973887E+00  4.381398313574E+00  4.433975093337E+00
  4.487182794457E+00  4.541028987990E+00  4.595521335846E+00  4.650667591876E+00
  4.706475602979E+00  4.762953310215E+00  4.820108749937E+00  4.877950054936E+00
  4.936485455596E+00  4.995723281063E+00  5.055671960436E+00  5.116340023961E+00
  5.177736104248E+00  5.239868937499E+00  5.302747364749E+00  5.366380333126E+00
  5.430776897124E+00  5.495946219889E+00  5.561897574528E+00  5.628640345422E+00
  5.696184029567E+00  5.764538237922E+00  5.833712696777E+00  5.903717249139E+00
  5.974561856128E+00  6.046256598402E+00  6.118811677583E+00  6.192237417714E+00
  6.266544266726E+00  6.341742797927E+00  6.417843711502E+00  6.494857836040E+00
  6.572796130072E+00  6.651669683633E+00  6.731489719837E+00  6.812267596475E+00
  6.894014807633E+00  6.976742985324E+00  7.060463901148E+00  7.145189467962E+00
  7.230931741577E+00  7.317702922476E+00  7.405515357546E+00  7.494381541837E+00
  7.584314120339E+00  7.675325889783E+00  7.767429800460E+00  7.860638958066E+00
  7.954966625562E+00  8.050426225069E+00  8.147031339770E+00  8.244795715847E+00
  8.343733264437E+00  8.443858063611E+00  8.545184360374E+00  8.647726572698E+00
  8.751499291571E+00  8.856517283070E+00  8.962795490467E+00  9.070349036352E+00
  9.179193224788E+00  9.289343543486E+00  9.400815666008E+00  9.513625454000E+00
  9.627788959448E+00  9.743322426961E+00  9.860242296085E+00  9.978565203638E+00
  1.009830798608E+01  1.021948768191E+01  1.034212153410E+01  1.046622699251E+01
  1.059182171642E+01  1.071892357701E+01  1.084755065994E+01  1.097772126786E+01
  1.110945392307E+01  1.124276737015E+01  1.137768057859E+01  1.151421274553E+01
  1.165238329848E+01  1.179221189806E+01  1.193371844084E+01  1.207692306213E+01
  1.222184613887E+01  1.236850829254E+01  1.251693039205E+01  1.266713355675E+01
  1.281913915944E+01  1.297296882935E+01  1.312864445530E+01  1.328618818877E+01
  1.344562244703E+01  1.360696991639E+01  1.377025355539E+01  1.393549659806E+01
  1.410272255723E+01  1.427195522792E+01  1.444321869065E+01  1.461653731494E+01
  1.479193576272E+01  1.496943899187E+01  1.514907225978E+01  1.533086112689E+01
  1.551483146042E+01  1.570100943794E+01  1.588942155120E+01  1.608009460981E+01
  1.627305574513E+01  1.646833241407E+01  1.666595240304E+01  1.686594383188E+01
  1.706833515786E+01  1.727315517975E+01  1.748043304191E+01  1.769019823841E+01
  1.790248061727E+01  1.811731038468E+01  1.833471810930E+01  1.855473472661E+01
  1.877739154333E+01  1.900272024185E+01  1.923075288475E+01  1.946152191937E+01
  1.969506018240E+01  1.993140090459E+01  2.017057771544E+01  2.041262464803E+01
  2.065757614381E+01  2.090546705753E+01  2.115633266222E+01  2.141020865417E+01
  2.166713115802E+01  2.192713673191E+01  2.219026237270E+01  2.245654552117E+01
  2.272602406742E+01  2.299873635623E+01  2.327472119251E+01  2.355401784682E+01
  2.383666606098E+01  2.412270605371E+01  2.441217852636E+01  2.470512466867E+01
  2.500158616470E+01  2.530160519867E+01  2.560522446106E+01  2.591248715459E+01
  2.622343700044E+01  2.653811824445E+01  2.685657566338E+01  2.717885457134E+01
  2.750500082620E+01  2.783506083611E+01  2.816908156615E+01  2.850711054494E+01
  2.884919587148E+01  2.919538622194E+01  2.954573085660E+01  2.990027962688E+01
  3.025908298240E+01  3.062219197819E+01  3.098965828193E+01  3.136153418131E+01
  3.173787259149E+01  3.211872706259E+01  3.250415178734E+01  3.289420160879E+01
  3.328893202809E+01  3.368839921243E+01  3.409266000298E+01  3.450177192301E+01
  3.491579318609E+01  3.533478270432E+01  3.575880009677E+01  3.618790569794E+01
  3.662216056631E+01  3.706162649311E+01  3.750636601102E+01  3.795644240316E+01
  3.841191971199E+01  3.887286274854E+01  3.933933710152E+01  3.981140914674E+01
  4.028914605650E+01  4.077261580918E+01  4.126188719889E+01  4.175702984527E+01
  4.225811420342E+01  4.276521157386E+01  4.327839411275E+01  4.379773484210E+01
  4.432330766020E+01
</grid-data>
</grid>
<valence-charge total-charge="10" is-unscreening-charge="yes"
 rescaled-to-z-pseudo="no">
<radfunc>
<data npts="457">
  1.445074654888E-02  1.452572996465E-02  1.475731706333E-02  1.514137275892E-02
  1.567681730210E-02  1.638348361756E-02  1.728842651461E-02  1.833059437373E-02
  1.950996698280E-02  2.089542582021E-02  2.247015387914E-02  2.419751001324E-02
  2.630701533068E-02  2.853578903309E-02  3.119863594054E-02  3.389440064971E-02
  3.704372537450E-02  4.007356101788E-02  4.353159625338E-02  4.748369374814E-02
  5.200704704351E-02  5.609746862669E-02  6.066497512692E-02  6.577092297926E-02
  7.148547007097E-02  7.788895149604E-02  8.507347641100E-02  9.103746488885E-02
  9.755026041380E-02  1.046677370251E-01  1.124519660600E-01  1.209719271827E-01
  1.303042962604E-01  1.405343163006E-01  1.517567575281E-01  1.640769723196E-01
  1.776120500436E-01  1.924920757892E-01  2.032299828979E-01  2.146761616164E-01
  2.268805869978E-01  2.398967789627E-01  2.537820246900E-01  2.685976085440E-01
  2.844090485315E-01  3.012863379833E-01  3.193041907970E-01  3.385422881737E-01
  3.590855243029E-01  3.810242479125E-01  4.044544959734E-01  4.294782151433E-01
  4.562034657305E-01  4.847446020473E-01  5.152224220032E-01  5.477642776434E-01
  5.825041370583E-01  6.195825866774E-01  6.591467613941E-01  7.013501882551E-01
  7.463525275775E-01  7.943191933377E-01  8.454208325109E-01  8.998326407469E-01
  9.577334893761E-01  1.019304836281E+00  1.084729390711E+00  1.118943668733E+00
  1.154189499734E+00  1.190489304562E+00  1.227865221823E+00  1.266339028000E+00
  1.305932051220E+00  1.346665078386E+00  1.388558255358E+00  1.431630979894E+00
  1.475901787068E+00  1.521388226876E+00  1.568106733775E+00  1.616072487907E+00
  1.665299267792E+00  1.715799294285E+00  1.767583065662E+00  1.820659183697E+00
  1.875034170684E+00  1.930712277392E+00  1.987695282005E+00  2.045982280198E+00
  2.105569466563E+00  2.166449907710E+00  2.228613307478E+00  2.292045764799E+00
  2.356729524914E+00  2.422642724774E+00  2.489759133611E+00  2.558047889866E+00
  2.627473235815E+00  2.697994251451E+00  2.769564589390E+00  2.842132212781E+00
  2.915639138423E+00  2.990021187547E+00  3.065207746927E+00  3.141121543248E+00
  3.217678433869E+00  3.294787217347E+00  3.372349467309E+00  3.450259393428E+00
  3.528403733428E+00  3.606661680175E+00  3.684904847993E+00  3.762997282386E+00
  3.840795517323E+00  3.918148684172E+00  3.994898676206E+00  4.070880372382E+00
  4.145921923770E+00  4.219845105605E+00  4.292465737458E+00  4.363594173398E+00
  4.433035863363E+00  4.500591986184E+00  4.566060153844E+00  4.629235185642E+00
  4.689909949957E+00  4.747876270283E+00  4.802925891168E+00  4.854851498685E+00
  4.903447789027E+00  4.948512577938E+00  4.989847942798E+00  5.027261388525E+00
  5.060567027860E+00  5.089586766239E+00  5.114151481317E+00  5.134102187235E+00
  5.149291174040E+00  5.159583113214E+00  5.164856121004E+00  5.165002772235E+00
  5.159931058431E+00  5.149565285293E+00  5.133846905958E+00  5.112735287697E+00
  5.086208410985E+00  5.054263500828E+00  5.016917591014E+00  4.974208022308E+00
  4.926192875524E+00  4.872951339847E+00  4.814584015640E+00  4.751213149286E+00
  4.682982795463E+00  4.610058899586E+00  4.532629290260E+00  4.450903568516E+00
  4.365112877637E+00  4.275509534791E+00  4.182366503720E+00  4.085976686745E+00
  3.986652014574E+00  3.884722314180E+00  3.780532783907E+00  3.674436429332E+00
  3.566783746193E+00  3.457919717444E+00  3.348184077754E+00  3.237909192432E+00
  3.127418911679E+00  3.017027341767E+00  2.907037697133E+00  2.797741220549E+00
  2.689416173428E+00  2.582326899373E+00  2.476717435487E+00  2.372793833753E+00
  2.270728897122E+00  2.170689461751E+00  2.072822682079E+00  1.977260377653E+00
  1.884118744711E+00  1.793498767302E+00  1.705486640482E+00  1.620154245548E+00
  1.537559672524E+00  1.457747783561E+00  1.380750811808E+00  1.306588989631E+00
  1.235271200845E+00  1.166795651573E+00  1.101150554675E+00  1.038314822865E+00
  9.782587659798E-01  9.209447880750E-01  8.663280803632E-01  8.143573063161E-01
  7.649752752161E-01  7.181196015492E-01  6.737233468848E-01  6.317156418838E-01
  5.920222860920E-01  5.545663234850E-01  5.192685919973E-01  4.860482455328E-01
  4.548232472087E-01  4.255108328429E-01  3.980279439399E-01  3.722916296789E-01
  3.482194176402E-01  3.257296532368E-01  3.047418080362E-01  2.851767573573E-01
  2.669570277181E-01  2.500070148757E-01  2.342531733462E-01  2.196241784156E-01
  2.060510617514E-01  1.934673218002E-01  1.818090102114E-01  1.710147955680E-01
  1.610260057346E-01  1.517866501681E-01  1.432434235786E-01  1.353456924006E-01
  1.280454656344E-01  1.212973517630E-01  1.150585036211E-01  1.092885532856E-01
  1.039495392250E-01  9.900582804904E-02  9.442403317935E-02  9.017293256957E-02
  8.622338721946E-02  8.254826166736E-02  7.912234698071E-02  7.592228610178E-02
  7.292650086553E-02  7.011511968616E-02  6.746990485151E-02  6.497417854889E-02
  6.261274709675E-02  6.037182327427E-02  5.823894703116E-02  5.620290515770E-02
  5.425365067164E-02  5.238222273745E-02  5.058066789870E-02  4.884196330720E-02
  4.715994250418E-02  4.552922417229E-02  4.394514414967E-02  4.240369088602E-02
  4.090144442991E-02  3.943551896564E-02  3.800350886450E-02  3.660343817631E-02
  3.523371345992E-02  3.389307983194E-02  3.258058010134E-02  3.129551684882E-02
  3.003741730628E-02  2.880600088915E-02  2.760114923492E-02  2.642287860301E-02
  2.527131449481E-02  2.414666835823E-02  2.304921624852E-02  2.197927932626E-02
  2.093720608485E-02  1.992335621218E-02  1.893808600578E-02  1.798173527472E-02
  1.705461567616E-02  1.615700044735E-02  1.528911550440E-02  1.445113188667E-02
  1.364315952892E-02  1.286524234264E-02  1.211735458262E-02  1.139939846578E-02
  1.071120299722E-02  1.005252394438E-02  9.423044890264E-03  8.822379255665E-03
  8.250073227492E-03  7.705609450726E-03  7.188411377604E-03  6.697848150477E-03
  6.233239895923E-03  5.793863310528E-03  5.378957424395E-03  4.987729436425E-03
  4.619360525146E-03  4.273011549875E-03  3.947828568683E-03  3.642948111560E-03
  3.357502158958E-03  3.090622787185E-03  2.841446452727E-03  2.609117897239E-03
  2.392793663678E-03  2.191645221655E-03  2.004861706689E-03  1.831652283548E-03
  1.671248148399E-03  1.522904188063E-03  1.385900317402E-03  1.259542517805E-03
  1.143163600964E-03  1.036123722779E-03  9.378106722938E-04  8.476399602203E-04
  7.650547308432E-04  6.895255200300E-04  6.205498807682E-04  5.576518961468E-04
  5.003815980737E-04  4.483143083253E-04  4.010499167995E-04  3.582121101442E-04
  3.194475622943E-04  2.844250969028E-04  2.528348302252E-04  2.243873017285E-04
  1.988125985552E-04  1.758594789886E-04  1.552944992294E-04  1.369011471040E-04
  1.204789857610E-04  1.058428099685E-04  9.282181727286E-05  8.125879600873E-05
  7.100933193806E-05  6.194103512603E-05  5.393278852142E-05  4.687401958236E-05
  4.066399616787E-05  3.521114779294E-05  3.043241321529E-05  2.625261518259E-05
  2.260386302016E-05  1.942498358026E-05  1.666098090842E-05  1.426252481204E-05
  1.218546834463E-05  1.039039404980E-05  8.842188644643E-06  7.509645666729E-06
  6.365095464011E-06  5.384061775700E-06  4.544944035606E-06  3.828724429058E-06
  3.218698650794E-06  2.700229244371E-06  2.260520353405E-06  1.888412680780E-06
  1.574197432819E-06  1.309448020322E-06  1.086868295935E-06  9.001561261305E-07
  7.438811247519E-07  6.133754120270E-07  5.046363067968E-07  4.142399090334E-07
  3.392645831857E-07  2.772234093069E-07  2.260047271618E-07  1.838199576007E-07
  1.491579445528E-07  1.207451192972E-07  9.751084558281E-08  7.855735917700E-08
  6.313376812960E-08  5.061363011602E-08  4.047567046508E-08  3.228724872569E-08
  2.569022280960E-08  2.038889784417E-08  1.613978190751E-08  1.274290286988E-08
  1.003446973030E-08  7.880688243640E-09  6.172564427326E-09  4.821550875506E-09
  3.755909860481E-09  2.917684135583E-09  2.260181342004E-09  1.745891132154E-09
  1.344765717159E-09  1.032804682581E-09  7.908937425693E-10  6.038547578106E-10
  4.596709564822E-10  3.488569897681E-10  2.639483341305E-10  1.990887215075E-10
  1.496978263567E-10  1.122044463414E-10  8.383295416741E-11  6.243293625971E-11
  4.634372674916E-11  3.428704289107E-11  2.528217452551E-11  1.857921381452E-11
  1.360666543755E-11  9.930480315417E-12  7.222132337185E-12  5.233828482709E-12
  3.779326029228E-12  2.719141334281E-12  1.949185755162E-12  1.392066306861E-12
  9.904506264296E-13  7.020251505201E-13  4.956782958656E-13  3.486219508662E-13
  2.442289220686E-13  1.704145520821E-13  1.184303201532E-13  8.196811087307E-14
  5.649781266048E-14  3.877945024659E-14  2.650533614201E-14  1.803867834887E-14
  1.222344556375E-14  8.246651128851E-15  5.539032254862E-15  3.703730822429E-15
  2.465306146972E-15  1.633445335555E-15  1.077250602985E-15  7.071036460109E-16
  4.619331125687E-16  3.003170546998E-16  1.942945733171E-16  1.250822542989E-16
  8.012339603023E-17  5.106526185951E-17  3.237933728030E-17  2.042489536130E-17
  1.281663539115E-17  7.999876537448E-18  4.966611536151E-18  3.066739089250E-18
  1.883236417056E-18  1.150046883093E-18  6.983608600596E-19  4.216659010660E-19
  2.531346246813E-19  1.510772119394E-19  8.963552438087E-20  5.286450323500E-20
  3.098987481434E-20  0.000000000000E+00  0.000000000000E+00  0.000000000000E+00
  0.000000000000E+00
</data>
</radfunc>
</valence-charge>
<pseudocore-charge matching-radius="0.929278974869"
 number-of-continuous-derivatives="4">
<annotation model-charge-form="Teter function with specified parameters" />
<radfunc>
<data npts="290">
  3.110954803669E+01  3.110798596276E+01  3.110316583462E+01  3.109518675401E+01
  3.108409232321E+01  3.106950294400E+01  3.105090668254E+01  3.102960919523E+01
  3.100565840886E+01  3.097772258463E+01  3.094622711551E+01  3.091198525605E+01
  3.087059024992E+01  3.082734367143E+01  3.077630997887E+01  3.072532420670E+01
  3.066659028786E+01  3.061089461778E+01  3.054825624438E+01  3.047782589932E+01
  3.039865477553E+01  3.032831696050E+01  3.025111225311E+01  3.016638961248E+01
  3.007344033612E+01  2.997149381783E+01  2.985971318596E+01  2.976888089785E+01
  2.967159753608E+01  2.956742786221E+01  2.945591079831E+01  2.933655844979E+01
  2.920885518821E+01  2.907225681585E+01  2.892618983770E+01  2.877005087079E+01
  2.860320622507E+01  2.842499169553E+01  2.829952360468E+01  2.816848082127E+01
  2.803164418797E+01  2.788878879965E+01  2.773968416445E+01  2.758409440884E+01
  2.742177853157E+01  2.725249071128E+01  2.707598067322E+01  2.689199412066E+01
  2.670027323691E+01  2.650055726430E+01  2.629258316663E+01  2.607608638212E+01
  2.585080167374E+01  2.561646408463E+01  2.537281000580E+01  2.511957836411E+01
  2.485651193801E+01  2.458335880889E+01  2.429987395544E+01  2.400582099838E+01
  2.370097410246E+01  2.338512004176E+01  2.305806043405E+01  2.271961414846E+01
  2.236961988964E+01  2.200793896014E+01  2.163445820056E+01  2.144326526840E+01
  2.124909310497E+01  2.105193616319E+01  2.085179110645E+01  2.064865691994E+01
  2.044253502427E+01  2.023342939114E+01  2.002134666102E+01  1.980629626256E+01
  1.958829053364E+01  1.936734484382E+01  1.914347771785E+01  1.891671096024E+01
  1.868706978028E+01  1.845458291749E+01  1.821928276697E+01  1.798120550445E+01
  1.774039121048E+01  1.749688399353E+01  1.725073211132E+01  1.700198809016E+01
  1.675070884157E+01  1.649695577578E+01  1.624079491139E+01  1.598229698077E+01
  1.572153753031E+01  1.545859701509E+01  1.519356088706E+01  1.492651967610E+01
  1.465756906310E+01  1.438680994433E+01  1.411434848617E+01  1.384029616944E+01
  1.356476982226E+01  1.328789164077E+01  1.300978919649E+01  1.273059542956E+01
  1.245044862679E+01  1.216949238357E+01  1.188787554862E+01  1.160575215059E+01
  1.132328130559E+01  1.104062710449E+01  1.075795847932E+01  1.047544904749E+01
  1.019327693332E+01  9.911624565629E+00  9.630678450950E+00  9.350628921355E+00
  9.071669856404E+00  8.793998378579E+00  8.517814521735E+00  8.243320872222E+00
  7.970722182430E+00  7.700224956670E+00  7.432037009439E+00  7.166366996297E+00
  6.903423917763E+00  6.643416596820E+00  6.386553130842E+00  6.133040318987E+00
  5.883083066301E+00  5.636883766070E+00  5.394641662184E+00  5.156552193577E+00
  4.922806323043E+00  4.693589853068E+00  4.469082731563E+00  4.249458350704E+00
  4.034882842360E+00  3.825514373900E+00  3.621502448422E+00  3.422987213767E+00
  3.230098784880E+00  3.042956584372E+00  2.861668706326E+00  2.686331308578E+00
  2.517028038871E+00  2.353829500387E+00  2.196792762237E+00  2.045960920500E+00
  1.901362715404E+00  1.763012210103E+00  1.630908536375E+00  1.505035712354E+00
  1.385362537050E+00  1.271842566113E+00  1.164414172766E+00  1.063000697332E+00
  9.675106881516E-01  8.778382359657E-01  7.938634030696E-01  7.154527476657E-01
  6.424599429137E-01  5.747264891707E-01  5.120825168531E-01  4.543476762465E-01
  4.013321094486E-01  3.528374984695E-01  3.086581823522E-01  2.685823350265E-01
  2.323931945011E-01  1.998703329431E-01  1.707909562206E-01  1.449312206153E-01
  1.220675536715E-01  1.019779655563E-01  8.444333689586E-02  6.924866883115E-02
  5.618428104202E-02  4.504694371983E-02  3.564092995323E-02  2.777897573053E-02
  2.128313576335E-02  1.598552459648E-02  1.172893398114E-02  8.367319237726E-03
  5.766149297829E-03  3.802617264063E-03  2.365710623434E-03  1.356142650992E-03
  6.861489953997E-04  2.791558899486E-04  6.932882097588E-05  1.012746512959E-06
  2.807702622752E-05  1.131800348672E-04  2.269699240678E-04  3.472391155903E-04
  4.580508047583E-04  5.488559884839E-04  6.136192829372E-04  6.499710516797E-04
  6.584021325389E-04  6.415157550361E-04  6.033491224608E-04  5.487746544803E-04
  4.829881252504E-04  4.110879811165E-04  3.377470860522E-04  2.669751351203E-04
  2.019671133003E-04  1.450305742536E-04  9.758227898705E-05  6.020296280109E-05
  3.273776649930E-05  1.442922679692E-05  4.069695312859E-06  1.606385241066E-07
  1.067423331449E-06  5.159843403181E-06  1.093069010259E-05  1.708699409468E-05
  2.261101760194E-05  2.679051153594E-05  2.922001575563E-05  2.977693482795E-05
  2.857764744866E-05  2.591991723212E-05  2.221831611619E-05  1.793924243124E-05
  1.354145178392E-05  9.426901077695E-06  5.905251873435E-06  3.173733875189E-06
  1.312392395312E-06  2.931951719275E-07  1.986523429130E-10  2.570868194879E-07
  8.579698833907E-07  1.597388563443E-06  2.295981868548E-06  2.819161431517E-06
  3.087271167841E-06  3.076947503857E-06  2.814573600770E-06  2.363692617205E-06
  1.808892002287E-06  1.238921209590E-06  7.316436352959E-07  3.428935811967E-07
  1.005071954427E-07  3.858023961178E-09  0.000000000000E+00  0.000000000000E+00
  0.000000000000E+00  0.000000000000E+00  0.000000000000E+00  0.000000000000E+00
  0.000000000000E+00  0.000000000000E+00  0.000000000000E+00  0.000000000000E+00
  0.000000000000E+00  0.000000000000E+00  0.000000000000E+00  0.000000000000E+00
  0.000000000000E+00  0.000000000000E+00  0.000000000000E+00  0.000000000000E+00
  0.000000000000E+00  0.000000000000E+00  0.000000000000E+00  0.000000000000E+00
  0.000000000000E+00  0.000000000000E+00  0.000000000000E+00  0.000000000000E+00
  0.000000000000E+00  0.000000000000E+00  0.000000000000E+00  0.000000000000E+00
  0.000000000000E+00  0.000000000000E+00  0.000000000000E+00  0.000000000000E+00
  0.000000000000E+00  0.000000000000E+00  0.000000000000E+00  0.000000000000E+00
  0.000000000000E+00  0.000000000000E+00
</data>
</radfunc>
</pseudocore-charge>
<semilocal-potentials set="scalar_relativistic">
<slps n="4" l="s" rc="1.51546923352" eref="-1.50306261930">
<radfunc>
<data npts="290">
  9.008023606328E+01  8.999260706621E+01  8.972310104069E+01  8.927992237074E+01
  8.866975217668E+01  8.787788442575E+01  8.688546915393E+01  8.577157877036E+01
  8.454693352937E+01  8.315466349035E+01  8.162978724254E+01  8.002343602706E+01
  7.814959104671E+01  7.626722342206E+01  7.413892545611E+01  7.210684731254E+01
  6.987475794500E+01  6.785837732219E+01  6.569892032805E+01  6.339761722094E+01
  6.095801636624E+01  5.891075522091E+01  5.678315556565E+01  5.458066418494E+01
  5.230983004474E+01  4.997826425002E+01  4.759456812017E+01  4.577826328451E+01
  4.394224420629E+01  4.209099991138E+01  4.022917921597E+01  3.836154582286E+01
  3.649293098361E+01  3.462818472067E+01  3.277212665545E+01  3.092949750241E+01
  2.910491226403E+01  2.730281609826E+01  2.611601359397E+01  2.494228859071E+01
  2.378278317836E+01  2.263858257511E+01  2.151071181356E+01  2.040013292111E+01
  1.930774260217E+01  1.823437042348E+01  1.718077749780E+01  1.614765565573E+01
  1.513562709010E+01  1.414524445336E+01  1.317699138395E+01  1.223128343502E+01
  1.130846937604E+01  1.040883283611E+01  9.532594256720E+00  8.679913121175E+00
  7.850890427978E+00  7.045571376206E+00  6.263948232073E+00  5.505963347454E+00
  4.771512303168E+00  4.060447152091E+00  3.372579739663E+00  2.707685082080E+00
  2.065504785108E+00  1.445750489288E+00  8.481073298714E-01  5.574726363902E-01
  2.722374023546E-01 -7.643641905564E-03 -2.822167733449E-01 -5.515291683631E-01
 -8.156287951414E-01 -1.074564306191E+00 -1.328384931118E+00 -1.577140369620E+00
 -1.820880684762E+00 -2.059656196524E+00 -2.293517375670E+00 -2.522514737974E+00
 -2.746698738843E+00 -2.966119668402E+00 -3.180827547104E+00 -3.390872021959E+00
 -3.596302263483E+00 -3.797166863486E+00 -3.993513733845E+00 -4.185390006440E+00
 -4.372841934436E+00 -4.555914795143E+00 -4.734652794700E+00 -4.909098974885E+00
 -5.079295122347E+00 -5.245281680644E+00 -5.407097665454E+00 -5.564780583413E+00
 -5.718366355040E+00 -5.867889242235E+00 -6.013381780976E+00 -6.154874719686E+00
 -6.292396964040E+00 -6.425975528715E+00 -6.555635496966E+00 -6.681399988625E+00
 -6.803290137355E+00 -6.921325077955E+00 -7.035521944557E+00 -7.145895880527E+00
 -7.252460060981E+00 -7.355225728771E+00 -7.454202244833E+00 -7.549397153774E+00
 -7.640816265581E+00 -7.728463754257E+00 -7.812342274226E+00 -7.892453095229E+00
 -7.968796256369E+00 -8.041370739893E+00 -8.110174665122E+00 -8.175205502832E+00
 -8.236460310149E+00 -8.293935985822E+00 -8.347629545439E+00 -8.397538415863E+00
 -8.443660747739E+00 -8.485995744581E+00 -8.524544006408E+00 -8.559307885420E+00
 -8.590291850639E+00 -8.617502857799E+00 -8.640950720150E+00 -8.660648475125E+00
 -8.676612741113E+00 -8.688864057848E+00 -8.697427203123E+00 -8.702331477830E+00
 -8.703610950536E+00 -8.701304652026E+00 -8.695456709587E+00 -8.686116410075E+00
 -8.673338180229E+00 -8.657181472136E+00 -8.637710541415E+00 -8.614994105413E+00
 -8.589104868707E+00 -8.560118903537E+00 -8.528114873347E+00 -8.493173088798E+00
 -8.455374387150E+00 -8.414798828285E+00 -8.371524203638E+00 -8.325624358285E+00
 -8.277167331394E+00 -8.226213326342E+00 -8.172812529118E+00 -8.117002802203E+00