<?xml version="1.0" encoding="UTF-8" ?>
<psml version="1.1" energy_unit="hartree" length_unit="bohr"
 uuid="6d1c7530-be42-11e7-4e85-ad947ebfbae8"
 xmlns="http://esl.cecam.org/PSML/ns/1.1">
<provenance creator="ONCVPSP-3.3.0+psml-3.3.0-73 (scalar-relativistic)"
 date="2017-10-31">
<annotation action="semilocal-pseudopotential-generation"
 action-cont="projectors-generation" />
<input-file name="oncvpsp-input">
<![CDATA[# atsym z nc nv iexc psfile
Sr 38 6 3 4 upf
# n l f
1 0 2.0
2 0 2.0
2 1 6.0
3 0 2.0
3 1 6.0
3 2 10.0
4 0 2.0
4 1 6.0
5 0 2.0
# lmax
2
# l rc ep ncon nbas qcut
0 1.65 0.0 4 8 6.7
1 1.3 0.0 4 8 8.3
2 1.5 0.0 4 8 7.8
# lloc lpopt rc5 dvloc0
4 5 1.3 0
# l nproj debl
0 2 1.0
1 2 3.0
2 2 3.5
# icmod fcfact rcfact
3 6.0 1.35
# epsh1 epsh2 depsh
-12.0 12.0 0.02
# rlmax drl
6.0 0.01
 0
]]>
</input-file>
</provenance>
<pseudo-atom-spec atomic-label="Sr" atomic-number="38" z-pseudo="10"
 flavor="Hamann&apos;s oncvpsp" relativity="scalar" spin-dft="no"
 core-corrections="yes">
<annotation pseudo-energy="-30.9032556852" />
<exchange-correlation>
<annotation oncvpsp-xc-code="4" oncvpsp-xc-type="GGA -- Perdew-Burke-Ernzerhof" />
<libxc-info number-of-functionals="2">
<functional name="Perdew, Burke &amp; Ernzerhof (GGA)" type="exchange" id="101" />
<functional name="Perdew, Burke &amp; Ernzerhof (GGA)" type="correlation"
 id="130" />
</libxc-info>
</exchange-correlation>
<valence-configuration total-valence-charge="10">
<shell n="4" l="s" occupation="2" />
<shell n="4" l="p" occupation="6" />
<shell n="5" l="s" occupation="2" />
</valence-configuration>
</pseudo-atom-spec>
<grid npts="457">
<annotation type="sampled from oncvpsp log grid"
 recipe="r(i:1..N) = r1*exp(a*(i-1)) + r=0; resampled"
 recipe-cont="r1: scale; a: step" scale="0.131578947368E-04"
 step="0.119285708653E-01" delta="0.500000000000E-02" rmax="44.3233076602" />
<grid-data>
  0.000000000000E+00  5.001285356115E-03  1.010955111220E-02  1.516593874179E-02
  2.019303497754E-02  2.532977517910E-02  3.065628572608E-02  3.579861277629E-02
  4.081801070727E-02  4.598931705399E-02  5.120136896821E-02  5.632817400049E-02
  6.196832721796E-02  6.736485206945E-02  7.323133442633E-02  7.866472394973E-02
  8.450124311626E-02  8.969446845692E-02  9.520685584117E-02  1.010580201333E-01
  1.072687816757E-01  1.125111070896E-01  1.180096298362E-01  1.237768705182E-01
  1.298259616315E-01  1.361706774698E-01  1.428254654891E-01  1.480291296502E-01
  1.534223826959E-01  1.590121320562E-01  1.648055368242E-01  1.708100169258E-01
  1.770332626221E-01  1.834832443594E-01  1.901682229770E-01  1.970967602872E-01
  2.042777300411E-01  2.117203292939E-01  2.168321049244E-01  2.220672992657E-01
  2.274288921392E-01  2.329199353110E-01  2.385435542291E-01  2.443029498024E-01
  2.502014002225E-01  2.562422628294E-01  2.624289760232E-01  2.687650612203E-01
  2.752541248584E-01  2.818998604490E-01  2.887060506796E-01  2.956765695673E-01
  3.028153846629E-01  3.101265593102E-01  3.176142549582E-01  3.252827335299E-01
  3.331363598482E-01  3.411796041204E-01  3.494170444823E-01  3.578533696043E-01
  3.664933813600E-01  3.753419975595E-01  3.844042547486E-01  3.936853110753E-01
  4.031904492259E-01  4.129250794320E-01  4.228947425498E-01  4.279694794604E-01
  4.331051132139E-01  4.383023745725E-01  4.435620030674E-01  4.488847471042E-01
  4.542713640694E-01  4.597226204382E-01  4.652392918835E-01  4.708221633861E-01
  4.764720293467E-01  4.821896936989E-01  4.879759700233E-01  4.938316816636E-01
  4.997576618435E-01  5.057547537857E-01  5.118238108311E-01  5.179656965611E-01
  5.241812849198E-01  5.304714603388E-01  5.368371178629E-01  5.432791632772E-01
  5.497985132366E-01  5.563960953954E-01  5.630728485402E-01  5.698297227226E-01
  5.766676793953E-01  5.835876915481E-01  5.905907438466E-01  5.976778327728E-01
  6.048499667661E-01  6.121081663673E-01  6.194534643637E-01  6.268869059360E-01
  6.344095488073E-01  6.420224633929E-01  6.497267329537E-01  6.575234537491E-01
  6.654137351941E-01  6.733987000164E-01  6.814794844166E-01  6.896572382296E-01
  6.979331250884E-01  7.063083225894E-01  7.147840224605E-01  7.233614307300E-01
  7.320417678988E-01  7.408262691136E-01  7.497161843429E-01  7.587127785551E-01
  7.678173318977E-01  7.770311398805E-01  7.863555135591E-01  7.957917797218E-01
  8.053412810784E-01  8.150053764514E-01  8.247854409688E-01  8.346828662604E-01
  8.446990606555E-01  8.548354493834E-01  8.650934747760E-01  8.754745964733E-01
  8.859802916310E-01  8.966120551306E-01  9.073713997921E-01  9.182598565896E-01
  9.292789748687E-01  9.404303225671E-01  9.517154864379E-01  9.631360722752E-01
  9.746937051425E-01  9.863900296042E-01  9.982267099595E-01  1.010205430479E+00
  1.022327895645E+00  1.034595830392E+00  1.047010980357E+00  1.059575112121E+00
  1.072290013467E+00  1.085157493629E+00  1.098179383552E+00  1.111357536155E+00
  1.124693826589E+00  1.138190152508E+00  1.151848434338E+00  1.165670615550E+00
  1.179658662936E+00  1.193814566892E+00  1.208140341694E+00  1.222638025795E+00
  1.237309682104E+00  1.252157398289E+00  1.267183287069E+00  1.282389486514E+00
  1.297778160352E+00  1.313351498276E+00  1.329111716255E+00  1.345061056850E+00
  1.361201789533E+00  1.377536211007E+00  1.394066645539E+00  1.410795445286E+00
  1.427724990629E+00  1.444857690517E+00  1.462195982803E+00  1.479742334596E+00
  1.497499242612E+00  1.515469233523E+00  1.533654864325E+00  1.552058722697E+00
  1.570683427369E+00  1.589531628498E+00  1.608606008040E+00  1.627909280136E+00
  1.647444191498E+00  1.667213521796E+00  1.687220084058E+00  1.707466725066E+00
  1.727956325767E+00  1.748691801676E+00  1.769676103296E+00  1.790912216536E+00
  1.812403163134E+00  1.834152001092E+00  1.856161825105E+00  1.878435767006E+00
  1.900976996210E+00  1.923788720165E+00  1.946874184807E+00  1.970236675025E+00
  1.993879515125E+00  2.017806069306E+00  2.042019742138E+00  2.066523979044E+00
  2.091322266792E+00  2.116418133994E+00  2.141815151602E+00  2.167516933421E+00
  2.193527136622E+00  2.219849462261E+00  2.246487655808E+00  2.273445507678E+00
  2.300726853770E+00  2.328335576016E+00  2.356275602928E+00  2.384550910163E+00
  2.413165521085E+00  2.442123507338E+00  2.471428989426E+00  2.501086137299E+00
  2.531099170947E+00  2.561472360998E+00  2.592210029330E+00  2.623316549682E+00
  2.654796348278E+00  2.686653904457E+00  2.718893751311E+00  2.751520476327E+00
  2.784538722043E+00  2.817953186707E+00  2.851768624948E+00  2.885989848447E+00
  2.920621726628E+00  2.955669187348E+00  2.991137217596E+00  3.027030864207E+00
  3.063355234578E+00  3.100115497393E+00  3.137316883361E+00  3.174964685962E+00
  3.213064262193E+00  3.251621033339E+00  3.290640485740E+00  3.330128171568E+00
  3.370089709627E+00  3.410530786143E+00  3.451457155576E+00  3.492874641443E+00
  3.534789137141E+00  3.577206606786E+00  3.620133086068E+00  3.663574683101E+00
  3.707537579298E+00  3.752028030249E+00  3.797052366612E+00  3.842616995012E+00
  3.888728398952E+00  3.935393139739E+00  3.982617857416E+00  4.030409271705E+00
  4.078774182966E+00  4.127719473161E+00  4.177252106839E+00  4.227379132121E+00
  4.278107681707E+00  4.329444973887E+00  4.381398313574E+00  4.433975093337E+00
  4.487182794457E+00  4.541028987990E+00  4.595521335846E+00  4.650667591876E+00
  4.706475602979E+00  4.762953310215E+00  4.820108749937E+00  4.877950054936E+00
  4.936485455596E+00  4.995723281063E+00  5.055671960436E+00  5.116340023961E+00
  5.177736104248E+00  5.239868937499E+00  5.302747364749E+00  5.366380333126E+00
  5.430776897124E+00  5.495946219889E+00  5.561897574528E+00  5.628640345422E+00
  5.696184029567E+00  5.764538237922E+00  5.833712696777E+00  5.903717249139E+00
  5.974561856128E+00  6.046256598402E+00  6.118811677583E+00  6.192237417714E+00
  6.266544266726E+00  6.341742797927E+00  6.417843711502E+00  6.494857836040E+00
  6.572796130072E+00  6.651669683633E+00  6.731489719837E+00  6.812267596475E+00
  6.894014807633E+00  6.976742985324E+00  7.060463901148E+00  7.145189467962E+00
  7.230931741577E+00  7.317702922476E+00  7.405515357546E+00  7.494381541837E+00
  7.584314120339E+00  7.675325889783E+00  7.767429800460E+00  7.860638958066E+00
  7.954966625562E+00  8.050426225069E+00  8.147031339770E+00  8.244795715847E+00
  8.343733264437E+00  8.443858063611E+00  8.545184360374E+00  8.647726572698E+00
  8.751499291571E+00  8.856517283070E+00  8.962795490467E+00  9.070349036352E+00
  9.179193224788E+00  9.289343543486E+00  9.400815666008E+00  9.513625454000E+00
  9.627788959448E+00  9.743322426961E+00  9.860242296085E+00  9.978565203638E+00
  1.009830798608E+01  1.021948768191E+01  1.034212153410E+01  1.046622699251E+01
  1.059182171642E+01  1.071892357701E+01  1.084755065994E+01  1.097772126786E+01
  1.110945392307E+01  1.124276737015E+01  1.137768057859E+01  1.151421274553E+01
  1.165238329848E+01  1.179221189806E+01  1.193371844084E+01  1.207692306213E+01
  1.222184613887E+01  1.236850829254E+01  1.251693039205E+01  1.266713355675E+01
  1.281913915944E+01  1.297296882935E+01  1.312864445530E+01  1.328618818877E+01
  1.344562244703E+01  1.360696991639E+01  1.377025355539E+01  1.393549659806E+01
  1.410272255723E+01  1.427195522792E+01  1.444321869065E+01  1.461653731494E+01
  1.479193576272E+01  1.496943899187E+01  1.514907225978E+01  1.533086112689E+01
  1.551483146042E+01  1.570100943794E+01  1.588942155120E+01  1.608009460981E+01
  1.627305574513E+01  1.646833241407E+01  1.666595240304E+01  1.686594383188E+01
  1.706833515786E+01  1.727315517975E+01  1.748043304191E+01  1.769019823841E+01
  1.790248061727E+01  1.811731038468E+01  1.833471810930E+01  1.855473472661E+01
  1.877739154333E+01  1.900272024185E+01  1.923075288475E+01  1.946152191937E+01
  1.969506018240E+01  1.993140090459E+01  2.017057771544E+01  2.041262464803E+01
  2.065757614381E+01  2.090546705753E+01  2.115633266222E+01  2.141020865417E+01
  2.166713115802E+01  2.192713673191E+01  2.219026237270E+01  2.245654552117E+01
  2.272602406742E+01  2.299873635623E+01  2.327472119251E+01  2.355401784682E+01
  2.383666606098E+01  2.412270605371E+01  2.441217852636E+01  2.470512466867E+01
  2.500158616470E+01  2.530160519867E+01  2.560522446106E+01  2.591248715459E+01
  2.622343700044E+01  2.653811824445E+01  2.685657566338E+01  2.717885457134E+01
  2.750500082620E+01  2.783506083611E+01  2.816908156615E+01  2.850711054494E+01
  2.884919587148E+01  2.919538622194E+01  2.954573085660E+01  2.990027962688E+01
  3.025908298240E+01  3.062219197819E+01  3.098965828193E+01  3.136153418131E+01
  3.173787259149E+01  3.211872706259E+01  3.250415178734E+01  3.289420160879E+01
  3.328893202809E+01  3.368839921243E+01  3.409266000298E+01  3.450177192301E+01
  3.491579318609E+01  3.533478270432E+01  3.575880009677E+01  3.618790569794E+01
  3.662216056631E+01  3.706162649311E+01  3.750636601102E+01  3.795644240316E+01
  3.841191971199E+01  3.887286274854E+01  3.933933710152E+01  3.981140914674E+01
  4.028914605650E+01  4.077261580918E+01  4.126188719889E+01  4.175702984527E+01
  4.225811420342E+01  4.276521157386E+01  4.327839411275E+01  4.379773484210E+01
  4.432330766020E+01
</grid-data>
</grid>
<valence-charge total-charge="10" is-unscreening-charge="yes"
 rescaled-to-z-pseudo="no">
<radfunc>
<data npts="457">
  5.137782968191E-02  5.146784889748E-02  5.174580979992E-02  5.220655690023E-02
  5.284848249467E-02  5.369490134960E-02  5.477753146123E-02  5.602258142401E-02
  5.742932804169E-02  5.907894593340E-02  6.095014401679E-02  6.299820372440E-02
  6.549316204400E-02  6.812201139754E-02  7.125354168262E-02  7.441385260639E-02
  7.809375550919E-02  8.162222659248E-02  8.563584575319E-02  9.020608201288E-02
  9.541604063844E-02  1.001091746065E-01  1.053303818635E-01  1.111442771254E-01
  1.176242525894E-01  1.248537894158E-01  1.329279743784E-01  1.396025922307E-01
  1.468643341190E-01  1.547699255564E-01  1.633820957962E-01  1.727702455642E-01
  1.830111861038E-01  1.941899553734E-01  2.064007171422E-01  2.197477484265E-01
  2.343465201281E-01  2.503248747780E-01  2.618128159374E-01  2.740220552291E-01
  2.870013252393E-01  3.008027176960E-01  3.154818918606E-01  3.310982900826E-01
  3.477153595923E-01  3.654007793192E-01  3.842266901863E-01  4.042699269439E-01
  4.256122491484E-01  4.483405683757E-01  4.725471681557E-01  4.983299124332E-01
  5.257924375832E-01  5.550443221267E-01  5.862012273026E-01  6.193850005383E-01
  6.547237326174E-01  6.923517579663E-01  7.324095859551E-01  7.750437494383E-01
  8.204065549405E-01  8.686557169232E-01  9.199538564651E-01  9.744678424619E-01
  1.032367951132E+00  1.093826817241E+00  1.159018148086E+00  1.193067688071E+00
  1.228115169004E+00  1.264181864299E+00  1.301288767074E+00  1.339456513145E+00
  1.378705297919E+00  1.419054786865E+00  1.460524019298E+00  1.503131305179E+00
  1.546894114664E+00  1.591828960134E+00  1.637951270448E+00  1.685275257201E+00
  1.733813772761E+00  1.783578159918E+00  1.834578092991E+00  1.886821410286E+00
  1.940313937859E+00  1.995059304568E+00  2.051058748487E+00  2.108310914817E+00
  2.166811645513E+00  2.226553760943E+00  2.287526833996E+00  2.349716957173E+00
  2.413106503336E+00  2.477673880903E+00  2.543393284458E+00  2.610234441889E+00
  2.678162359367E+00  2.747137065626E+00  2.817113357263E+00  2.888040546910E+00
  2.959862216418E+00  3.032515977351E+00  3.105933241350E+00  3.180039003126E+00
  3.254751639059E+00  3.329982724603E+00  3.405636873859E+00  3.481611604879E+00
  3.557797234401E+00  3.634076805819E+00  3.710326054288E+00  3.786413412879E+00
  3.862200063689E+00  3.937540037706E+00  4.012280367115E+00  4.086261293477E+00
  4.159316534919E+00  4.231273615118E+00  4.301954256360E+00  4.371174838424E+00
  4.438746924420E+00  4.504477853980E+00  4.568171403431E+00  4.629628511758E+00
  4.688648070245E+00  4.745027772815E+00  4.798565023135E+00  4.849057893672E+00
  4.896306131011E+00  4.940112200959E+00  4.980282366261E+00  5.016627789163E+00
  5.048965650667E+00  5.077120278029E+00  5.100924272012E+00  5.120219625546E+00
  5.134858825764E+00  5.144705931968E+00  5.149637622750E+00  5.149544206406E+00
  5.144330589756E+00  5.133917201497E+00  5.118240867290E+00  5.097255634679E+00
  5.070933546729E+00  5.039265363814E+00  5.002261233094E+00  4.959951305065E+00
  4.912386295756E+00  4.859637991980E+00  4.801799695197E+00  4.738986597297E+00
  4.671336078865E+00  4.599007917390E+00  4.522184389695E+00  4.441070249620E+00
  4.355892559170E+00  4.266900349017E+00  4.174364082943E+00  4.078574900697E+00
  3.979843615182E+00  3.878499443180E+00  3.774887289919E+00  3.669359914420E+00
  3.562267288250E+00  3.453953306360E+00  3.344755779404E+00  3.235004021678E+00
  3.125017432055E+00  3.015104013756E+00  2.905559010150E+00  2.796663655261E+00
  2.688684051508E+00  2.581870186519E+00  2.476455099668E+00  2.372654207540E+00
  2.270664795798E+00  2.170665682876E+00  2.072817058618E+00  1.977260498508E+00
  1.884119151420E+00  1.793498096103E+00  1.705485036472E+00  1.620151850827E+00
  1.537556555777E+00  1.457744064607E+00  1.380746601354E+00  1.306584389196E+00
  1.235266303075E+00  1.166790540550E+00  1.101145306240E+00  1.038309504975E+00
  9.782534390728E-01  9.209395054571E-01  8.663228885999E-01  8.143522456338E-01
  7.649703799055E-01  7.181149003702E-01  6.737188634680E-01  6.317113951276E-01
  5.920182905527E-01  5.545625897565E-01  5.192651270810E-01  4.860450531934E-01
  4.548203283167E-01  4.255081857013E-01  3.980255645954E-01  3.722895122155E-01
  3.482175544559E-01  3.257280353027E-01  3.047404251373E-01  2.851755983163E-01
  2.669560806012E-01  2.500062671809E-01  2.342526121751E-01  2.196237906291E-01
  2.060508341090E-01  1.934672410845E-01  1.818090633382E-01  1.710149696827E-01
  1.610262882955E-01  1.517870290180E-01  1.432438870045E-01  1.353462291832E-01
  1.280460650875E-01  1.212980037639E-01  1.150591986326E-01  1.092892823707E-01
  1.039502940539E-01  9.900660090072E-02  9.442481693726E-02  9.017372071260E-02
  8.622417380889E-02  8.254904133034E-02  7.912311489110E-02  7.592303795883E-02
  7.292723287099E-02  7.011582852025E-02  6.747058764824E-02  6.497483287098E-02
  6.261337091034E-02  6.037241492375E-02  5.823950521416E-02  5.620342890043E-02
  5.425413930461E-02  5.238267587179E-02  5.058108540296E-02  4.884234528491E-02
  4.716028927200E-02  4.552953623903E-02  4.394542219610E-02  4.240393574550E-02
  4.090165706989E-02  3.943570047009E-02  3.800366041724E-02  3.660356104529E-02
  3.523380898230E-02  3.389314940027E-02  3.258062515046E-02  3.129553884377E-02
  3.003741773103E-02  2.880598123617E-02  2.760111099562E-02  2.642282325893E-02
  2.527124350961E-02  2.414658317045E-02  2.304911826500E-02  2.197916991636E-02
  2.093708657522E-02  1.992322788228E-02  1.893795008397E-02  1.798159293495E-02
  1.705446803528E-02  1.615684856294E-02  1.528896037311E-02  1.445097444309E-02
  1.364300064494E-02  1.286508282725E-02  1.211719518215E-02  1.139923986450E-02
  1.071104581834E-02  1.005236875139E-02  9.422892188548E-03  8.822229494397E-03
  8.249926801762E-03  7.705466703863E-03  7.188272603657E-03  6.697713596830E-03
  6.233109765997E-03  5.793737766556E-03  5.378836590229E-03  4.987613400347E-03
  4.619249342666E-03  4.272905246490E-03  3.947727142580E-03  3.642851536241E-03
  3.357410385772E-03  3.090535747769E-03  2.841364061326E-03  2.609040052919E-03
  2.392720252403E-03  2.191576118250E-03  2.004796776669E-03  1.831591384821E-03
  1.671191132839E-03  1.522850902962E-03  1.385850606801E-03  1.259496223705E-03
  1.143120564425E-03  1.036083784909E-03  9.377736751380E-04  8.476057475516E-04
  7.650231488595E-04  6.894964179659E-04  6.205231114256E-04  5.576273163491E-04
  5.003590690505E-04  4.482936960308E-04  4.010310921705E-04  3.581949493020E-04
  3.194319466948E-04  2.844109134392E-04  2.528219712877E-04  2.243756652237E-04
  1.988020878903E-04  1.758500030226E-04  1.552859721965E-04  1.368934885098E-04
  1.204721202573E-04  1.058366672082E-04  9.281633174776E-05  8.125390687402E-05
  7.100498282495E-05  6.193717394569E-05  5.392936726224E-05  4.687099410281E-05
  4.066132598689E-05  3.520879587976E-05  3.043034578024E-05  2.625080147054E-05
  2.260227510779E-05  1.942359617837E-05  1.665977117030E-05  1.426147214867E-05
  1.218455424745E-05  1.038960192152E-05  8.841503638517E-06  7.509054534601E-06
  6.364586413206E-06  5.383624334874E-06  4.544568929485E-06  3.828403461939E-06
  3.218424598626E-06  2.699995755141E-06  2.260321855551E-06  1.888244299266E-06
  1.574054912513E-06  1.309327656286E-06  1.086766870204E-06  9.000708505824E-07
  7.438095896472E-07  6.133155398008E-07  5.045863107056E-07  4.141982562613E-07
  3.392299620323E-07  2.771947000959E-07  2.259809765279E-07  1.838003558309E-07
  1.491418056806E-07  1.207318636676E-07  9.749998462663E-08  7.854848215495E-08
  6.312653062488E-08  5.060774407475E-08  4.047089560165E-08  3.228338512787E-08
  2.568710459473E-08  2.038638773296E-08  1.613776659648E-08  1.274128909649E-08
  1.003318093693E-08  7.879661757714E-09  6.171749084766E-09  4.820905023750E-09
  3.755399685488E-09  2.917282264449E-09  2.259865679299E-09  1.745643893823E-09
  1.344572630879E-09  1.032654327926E-09  7.907770082036E-10  6.037643963479E-10
  4.596012205677E-10  3.488033354996E-10  2.639071801213E-10  1.990572537758E-10
  1.496738408322E-10  1.121862221473E-10  8.381915199763E-11  6.242251714870E-11
  4.633588735800E-11  3.428116412431E-11  2.527778087042E-11  1.857594127506E-11
  1.360423633340E-11  9.928683545101E-12  7.220807974938E-12  5.232855800016E-12
  3.778614213024E-12  2.718622320724E-12  1.948808717012E-12  1.391793428558E-12
  9.902538781534E-13  7.018838343276E-13  4.955771862250E-13  3.485498910455E-13
  2.441777687491E-13  1.703783849311E-13  1.184048521940E-13  8.195025041365E-14
  5.648533914880E-14  3.877077541189E-14  2.649932871518E-14  1.803453598008E-14
  1.222060162709E-14  8.244707203477E-15  5.537709421611E-15  3.702834687275E-15
  2.464701834457E-15  1.633039690865E-15  1.076979582374E-15  7.069234243278E-16
  4.618138413808E-16  3.002385016393E-16  1.942430902146E-16  1.250486793771E-16
  8.010160948579E-17  5.105119624331E-17  3.237030286747E-17  2.041912257806E-17
  1.281296605409E-17  7.997556580955E-18  4.965152605614E-18  3.065826607736E-18
  1.882668846386E-18  1.149695813188E-18  6.981449285238E-19  4.215338450988E-19
  2.530543294455E-19  1.510286740103E-19  8.960635669605E-20  5.284708031230E-20
  3.097953036625E-20  0.000000000000E+00  0.000000000000E+00  0.000000000000E+00
  0.000000000000E+00
</data>
</radfunc>
</valence-charge>
<pseudocore-charge matching-radius="0.929278974869"
 number-of-continuous-derivatives="4">
<annotation model-charge-form="Teter function with specified parameters" />
<radfunc>
<data npts="290">
  3.110954803669E+01  3.110798596276E+01  3.110316583462E+01  3.109518675401E+01
  3.108409232321E+01  3.106950294400E+01  3.105090668254E+01  3.102960919523E+01
  3.100565840886E+01  3.097772258463E+01  3.094622711551E+01  3.091198525605E+01
  3.087059024992E+01  3.082734367143E+01  3.077630997887E+01  3.072532420670E+01
  3.066659028786E+01  3.061089461778E+01  3.054825624438E+01  3.047782589932E+01
  3.039865477553E+01  3.032831696050E+01  3.025111225311E+01  3.016638961248E+01
  3.007344033612E+01  2.997149381783E+01  2.985971318596E+01  2.976888089785E+01
  2.967159753608E+01  2.956742786221E+01  2.945591079831E+01  2.933655844979E+01
  2.920885518821E+01  2.907225681585E+01  2.892618983770E+01  2.877005087079E+01
  2.860320622507E+01  2.842499169553E+01  2.829952360468E+01  2.816848082127E+01
  2.803164418797E+01  2.788878879965E+01  2.773968416445E+01  2.758409440884E+01
  2.742177853157E+01  2.725249071128E+01  2.707598067322E+01  2.689199412066E+01
  2.670027323691E+01  2.650055726430E+01  2.629258316663E+01  2.607608638212E+01
  2.585080167374E+01  2.561646408463E+01  2.537281000580E+01  2.511957836411E+01
  2.485651193801E+01  2.458335880889E+01  2.429987395544E+01  2.400582099838E+01
  2.370097410246E+01  2.338512004176E+01  2.305806043405E+01  2.271961414846E+01
  2.236961988964E+01  2.200793896014E+01  2.163445820056E+01  2.144326526840E+01
  2.124909310497E+01  2.105193616319E+01  2.085179110645E+01  2.064865691994E+01
  2.044253502427E+01  2.023342939114E+01  2.002134666102E+01  1.980629626256E+01
  1.958829053364E+01  1.936734484382E+01  1.914347771785E+01  1.891671096024E+01
  1.868706978028E+01  1.845458291749E+01  1.821928276697E+01  1.798120550445E+01
  1.774039121048E+01  1.749688399353E+01  1.725073211132E+01  1.700198809016E+01
  1.675070884157E+01  1.649695577578E+01  1.624079491139E+01  1.598229698077E+01
  1.572153753031E+01  1.545859701509E+01  1.519356088706E+01  1.492651967610E+01
  1.465756906310E+01  1.438680994433E+01  1.411434848617E+01  1.384029616944E+01
  1.356476982226E+01  1.328789164077E+01  1.300978919649E+01  1.273059542956E+01
  1.245044862679E+01  1.216949238357E+01  1.188787554862E+01  1.160575215059E+01
  1.132328130559E+01  1.104062710449E+01  1.075795847932E+01  1.047544904749E+01
  1.019327693332E+01  9.911624565629E+00  9.630678450950E+00  9.350628921355E+00
  9.071669856404E+00  8.793998378579E+00  8.517814521735E+00  8.243320872222E+00
  7.970722182430E+00  7.700224956670E+00  7.432037009439E+00  7.166366996297E+00
  6.903423917763E+00  6.643416596820E+00  6.386553130842E+00  6.133040318987E+00
  5.883083066301E+00  5.636883766070E+00  5.394641662184E+00  5.156552193577E+00
  4.922806323043E+00  4.693589853068E+00  4.469082731563E+00  4.249458350704E+00
  4.034882842360E+00  3.825514373900E+00  3.621502448422E+00  3.422987213767E+00
  3.230098784880E+00  3.042956584372E+00  2.861668706326E+00  2.686331308578E+00
  2.517028038871E+00  2.353829500387E+00  2.196792762237E+00  2.045960920500E+00
  1.901362715404E+00  1.763012210103E+00  1.630908536375E+00  1.505035712354E+00
  1.385362537050E+00  1.271842566113E+00  1.164414172766E+00  1.063000697332E+00
  9.675106881516E-01  8.778382359657E-01  7.938634030696E-01  7.154527476657E-01
  6.424599429137E-01  5.747264891707E-01  5.120825168531E-01  4.543476762465E-01
  4.013321094486E-01  3.528374984695E-01  3.086581823522E-01  2.685823350265E-01
  2.323931945011E-01  1.998703329431E-01  1.707909562206E-01  1.449312206153E-01
  1.220675536715E-01  1.019779655563E-01  8.444333689586E-02  6.924866883115E-02
  5.618428104202E-02  4.504694371983E-02  3.564092995323E-02  2.777897573053E-02
  2.128313576335E-02  1.598552459648E-02  1.172893398114E-02  8.367319237726E-03
  5.766149297829E-03  3.802617264063E-03  2.365710623434E-03  1.356142650992E-03
  6.861489953997E-04  2.791558899486E-04  6.932882097588E-05  1.012746512959E-06
  2.807702622752E-05  1.131800348672E-04  2.269699240678E-04  3.472391155903E-04
  4.580508047583E-04  5.488559884839E-04  6.136192829372E-04  6.499710516797E-04
  6.584021325389E-04  6.415157550361E-04  6.033491224608E-04  5.487746544803E-04
  4.829881252504E-04  4.110879811165E-04  3.377470860522E-04  2.669751351203E-04
  2.019671133003E-04  1.450305742536E-04  9.758227898705E-05  6.020296280109E-05
  3.273776649930E-05  1.442922679692E-05  4.069695312859E-06  1.606385241066E-07
  1.067423331449E-06  5.159843403181E-06  1.093069010259E-05  1.708699409468E-05
  2.261101760194E-05  2.679051153594E-05  2.922001575563E-05  2.977693482795E-05
  2.857764744866E-05  2.591991723212E-05  2.221831611619E-05  1.793924243124E-05
  1.354145178392E-05  9.426901077695E-06  5.905251873435E-06  3.173733875189E-06
  1.312392395312E-06  2.931951719275E-07  1.986523429130E-10  2.570868194879E-07
  8.579698833907E-07  1.597388563443E-06  2.295981868548E-06  2.819161431517E-06
  3.087271167841E-06  3.076947503857E-06  2.814573600770E-06  2.363692617205E-06
  1.808892002287E-06  1.238921209590E-06  7.316436352959E-07  3.428935811967E-07
  1.005071954427E-07  3.858023961178E-09  0.000000000000E+00  0.000000000000E+00
  0.000000000000E+00  0.000000000000E+00  0.000000000000E+00  0.000000000000E+00
  0.000000000000E+00  0.000000000000E+00  0.000000000000E+00  0.000000000000E+00
  0.000000000000E+00  0.000000000000E+00  0.000000000000E+00  0.000000000000E+00
  0.000000000000E+00  0.000000000000E+00  0.000000000000E+00  0.000000000000E+00
  0.000000000000E+00  0.000000000000E+00  0.000000000000E+00  0.000000000000E+00
  0.000000000000E+00  0.000000000000E+00  0.000000000000E+00  0.000000000000E+00
  0.000000000000E+00  0.000000000000E+00  0.000000000000E+00  0.000000000000E+00
  0.000000000000E+00  0.000000000000E+00  0.000000000000E+00  0.000000000000E+00
  0.000000000000E+00  0.000000000000E+00  0.000000000000E+00  0.000000000000E+00
  0.000000000000E+00  0.000000000000E+00
</data>
</radfunc>
</pseudocore-charge>
<semilocal-potentials set="scalar_relativistic">
<slps n="4" l="s" rc="1.66721352180" eref="-1.50306261930">
<radfunc>
<data npts="290">
  3.835953268334E+01  3.833862298089E+01  3.827420053173E+01  3.816788603990E+01
  3.802073848864E+01  3.782842476074E+01  3.758522916910E+01  3.730933869490E+01
  3.700238219738E+01  3.664869779337E+01  3.625544811919E+01  3.583438071328E+01
  3.533413586319E+01  3.482150831706E+01  3.422931194294E+01  3.365099828877E+01
  3.300073122381E+01  3.239929514252E+01  3.173989182110E+01  3.101911063726E+01
  3.023383034954E+01  2.955733082478E+01  2.883667215564E+01  2.807099178275E+01
  2.725975110711E+01  2.640278456395E+01  2.550034672245E+01  2.479409113110E+01
  2.406313756015E+01  2.330813777716E+01  2.252991458047E+01  2.172946511844E+01
  2.090796190263E+01  2.006675130282E+01  1.920734936373E+01  1.833143484672E+01
  1.744083947261E+01  1.653753542164E+01  1.592930352003E+01  1.531700224438E+01
  1.470129931672E+01  1.408287856952E+01  1.346243711010E+01  1.284068237504E+01
  1.221832910319E+01  1.159609625710E+01  1.097470392408E+01  1.035487022827E+01
  9.737308285172E+00  9.122723229556E+00  8.511809346570E+00  7.905247334400E+00
  7.303701724760E+00  6.707818485190E+00  6.118222824388E+00  5.535517218794E+00
  4.960279675421E+00  4.393062242561E+00  3.834389776521E+00  3.284758969042E+00
  2.744637636651E+00  2.214464269792E+00  1.694647836396E+00  1.185567831528E+00
  6.875745618741E-01  2.009896513133E-01 -2.738932486096E-01 -5.068621098864E-01
 -7.368075615388E-01 -9.637003374428E-01 -1.187512722615E+00 -1.408218512410E+00
 -1.625792969997E+00 -1.840212782326E+00 -2.051456014755E+00 -2.259502064567E+00
 -2.464331613556E+00 -2.665926579911E+00 -2.864270069590E+00 -3.059346327411E+00
 -3.251140688069E+00 -3.439639527299E+00 -3.624830213393E+00 -3.806701059307E+00
 -3.985241275572E+00 -4.160440924217E+00 -4.332290873937E+00 -4.500782756729E+00
 -4.665908926181E+00 -4.827662417669E+00 -4.986036910619E+00 -5.141026693083E+00
 -5.292626628775E+00 -5.440832126781E+00 -5.585639114095E+00 -5.727044011135E+00
 -5.865043710389E+00 -5.999635558266E+00 -6.130817340324E+00 -6.258587269817E+00
 -6.382943979754E+00 -6.503886518274E+00 -6.621414347506E+00 -6.735527345680E+00
 -6.846225812428E+00 -6.953510477093E+00 -7.057382509840E+00 -7.157843535257E+00
 -7.254895648142E+00 -7.348541431085E+00 -7.438783973384E+00 -7.525626890803E+00
 -7.609074345617E+00 -7.689131066314E+00 -7.765802366296E+00 -7.839094160867E+00
 -7.909012981740E+00 -7.975565988259E+00 -8.038760974521E+00 -8.098606371540E+00
 -8.155111243558E+00 -8.208285277680E+00 -8.258138765923E+00 -8.304682578898E+00
 -8.347928130300E+00 -8.387887331538E+00 -8.424572535887E+00 -8.457996471704E+00
 -8.488172164425E+00 -8.515112847288E+00 -8.538831861007E+00 -8.559342542930E+00
 -8.576658106637E+00 -8.590791513359E+00 -8.601755337115E+00 -8.609561626016E+00
 -8.614221762833E+00 -8.615746328507E+00 -8.614144973026E+00 -8.609426298715E+00
 -8.601597761705E+00 -8.590665597910E+00 -8.576634780515E+00 -8.559509016395E+00
 -8.539290789320E+00 -8.515981458119E+00 -8.489581418062E+00 -8.460090333847E+00
 -8.427507452369E+00 -8.391832003351E+00 -8.353063695552E+00 -8.311203315952E+00
 -8.266253439037E+00 -8.218219252985E+00 -8.167109509493E+00 -8.112937603934E+00